42
M4_2_solv.log	Energy: -666038.4078955
C         -0.84413        1.17068       -1.62891
N         -1.15467        2.12944       -0.57983
C         -0.94021        1.89539        0.71691
C          0.61454        1.21207       -2.06020
H         -1.43929        1.44308       -2.51002
N         -0.86555        2.90885        1.56588
H         -0.87117        3.86249        1.21918
H         -0.92732        2.76058        2.56676
H         -1.30703        3.09520       -0.85686
N         -0.83570        0.62798        1.16275
C          0.37571       -1.26689        0.54372
C          1.05427       -0.65807        1.75466
C         -0.06383        0.21310        2.34889
O          0.73791       -2.19138       -0.13340
H          0.32463        1.07830        2.89553
H         -0.71836       -0.35306        3.02566
H          0.78476        0.50762       -2.88475
H          0.88709        2.22459       -2.38764
O          1.41474        0.86731       -0.93536
C          2.48935        0.07675       -1.07120
O          2.85245       -0.36335       -2.13516
C         -1.26724       -0.22365       -1.18937
C         -0.96452       -0.52637        0.28973
N         -2.09541       -1.36184        0.64872
C         -3.10485       -1.19033       -0.22192
N         -2.70491       -0.43795       -1.24753
H         -0.74911       -0.97450       -1.80574
N         -4.30700       -1.69867       -0.07566
H         -2.23762       -1.71412        1.59175
H         -3.22153       -0.38513       -2.12102
H         -5.01141       -1.56576       -0.79406
H         -4.53855       -2.24035        0.75063
H          1.32285       -1.49319        2.41637
C          3.18695       -0.14284        0.25713
C          2.31279        0.20731        1.46342
H          3.98107        0.62646        0.23903
H          1.99143        1.25182        1.35716
C          3.87279       -1.50482        0.32884
H          2.94235        0.16660        2.36314
H          4.54242       -1.65072       -0.52976
H          3.14132       -2.32418        0.33964
H          4.47561       -1.56500        1.24590
