42
M4_3_solv.log	Energy: -666035.9904090
C         -0.83609        1.37005       -1.45039
N         -1.07318        2.16210       -0.25218
C         -0.66413        1.72969        0.93981
C          0.60837        1.38948       -1.94752
H         -1.44039        1.81857       -2.24835
N         -0.47733        2.56168        1.94794
H         -0.51374        3.56450        1.79426
H         -0.34273        2.21789        2.89265
H         -1.30305        3.14598       -0.35533
N         -0.43329        0.41186        1.08980
C          0.20685       -1.63329        0.18244
C          1.08080       -1.39673        1.39470
C          0.49610       -0.15022        2.07799
O          0.31499       -2.49710       -0.64432
H          1.26651        0.59381        2.31684
H         -0.03425       -0.41002        3.00485
H          0.61251        1.12987       -3.01296
H          1.05156        2.38384       -1.81220
O          1.41739        0.39205       -1.31948
C          2.29775        0.71689       -0.36397
O          2.36146        1.82305        0.12039
C         -1.33572       -0.05470       -1.22267
C         -0.94242       -0.59128        0.17629
N         -2.18049       -1.20193        0.62814
C         -3.21296       -0.85327       -0.15495
N         -2.78425       -0.14132       -1.19360
H         -0.92851       -0.72423       -1.99479
N         -4.46541       -1.17991        0.07528
H         -2.29011       -1.60880        1.55280
H         -3.36680        0.09384       -1.99090
H         -5.19566       -0.89373       -0.56838
H         -4.71372       -1.71585        0.90006
H          0.89932       -2.27378        2.03641
C          3.17973       -0.45742        0.01153
C          2.59655       -1.36853        1.13257
H          4.08017        0.01579        0.42567
H          3.06334       -1.10534        2.09142
C          3.57900       -1.27053       -1.22192
H          2.91298       -2.39664        0.90827
H          3.98197       -0.62418       -2.01539
H          4.35953       -1.99259       -0.94219
H          2.72495       -1.83102       -1.62657
