39
M2_2_solv.log	Energy: -641373.4526724
C         -0.42665       -0.46842       -1.94749
N         -0.66529        0.96489       -2.02528
C         -0.52737        1.78424       -0.98031
C          1.04459       -0.83644       -2.05970
H         -0.93633       -0.93283       -2.80119
N         -0.36052        3.08343       -1.17472
H         -0.24178        3.44323       -2.11612
H         -0.48517        3.74715       -0.41840
H         -0.69941        1.38825       -2.94817
N         -0.58585        1.28959        0.27028
C          0.35007       -0.48080        1.46585
C          1.05501        0.78825        1.89515
C          0.08457        1.88695        1.43893
O          0.61273       -1.61322        1.77047
H          0.60018        2.81266        1.16373
H         -0.66428        2.12230        2.20741
H          1.15808       -1.92818       -2.09249
H          1.48580       -0.40108       -2.96675
O          1.70519       -0.30484       -0.91637
C          2.74146       -0.95394       -0.37068
O          3.21086       -1.95995       -0.84566
C         -1.04522       -1.02146       -0.67024
C         -0.85121       -0.10959        0.55612
N         -2.10717       -0.29874        1.25919
C         -3.04028       -0.80650        0.43702
N         -2.49368       -1.13276       -0.73452
H         -0.60090       -2.00271       -0.44223
N         -4.30534       -0.96241        0.75400
H         -2.34037        0.20758        2.10957
H         -2.95610       -1.74423       -1.40115
H         -4.95195       -1.37813        0.09165
H         -4.65086       -0.65565        1.65755
H          1.13217        0.74236        2.99047
C          3.23238       -0.27724        0.88336
C          2.47435        0.97930        1.29098
H          4.28804       -0.02648        0.69676
H          2.39528        1.63650        0.41375
H          3.23956       -1.04113        1.67607
H          3.07261        1.52040        2.03548
