62
ZTX_237_solv.log	Energy: -1483143.2420575
C          1.10153       -1.88643        0.07833
N          0.64477       -2.29390        1.38409
C         -0.04136       -1.48403        2.18818
C          0.20214       -2.07868       -1.16413
H          1.94013       -2.54165       -0.17882
N         -0.60767       -1.94689        3.28764
H         -0.61757       -2.94408        3.48029
H          0.86363       -3.23271        1.70582
N         -0.19465       -0.19170        1.83610
C         -0.34709        1.30573       -0.02552
C         -1.77746        0.93301        0.55561
C         -1.44768        0.53595        1.99695
O         -0.06525        2.65042        0.16864
O         -0.17692        0.92004       -1.34533
H         -2.22337       -0.09553        2.44665
H         -1.30993        1.43541        2.61295
O          0.79146       -2.25382       -2.22493
C          1.61838       -0.45364        0.11683
C          0.66590        0.49445        0.87172
N          1.60470        1.35867        1.54525
C          2.83854        0.85990        1.55157
N          2.87527       -0.30324        0.86213
H          1.75662       -0.09266       -0.91017
N          3.86535        1.41252        2.15711
C          4.06785       -1.02764        0.54245
H          4.81381        1.16266        1.85497
H         -0.84717        1.40162       -1.86315
C         -2.54973       -0.17178       -0.19347
O          4.68388       -0.57283       -0.65290
H          4.76691       -0.97539        1.38542
H          3.81463       -2.07690        0.36345
C          5.69401        0.30199       -0.53952
O          6.09013        0.76785        0.51819
N          6.26833        0.58770       -1.72402
H          6.89714        1.38681       -1.77034
O          5.66134        0.23722       -2.89697
H          6.14078       -0.53803       -3.22688
H         -3.55184       -0.10601        0.24540
H         -2.65464        0.09904       -1.25270
N         -1.13830       -2.05412       -1.08971
C         -2.14418       -1.64962       -0.10820
C         -3.27645       -2.60617       -0.54753
C         -3.11796       -2.62086       -2.06508
O         -1.77418       -2.18579       -2.31989
H         -1.84123       -1.95051        0.89421
C         -4.67573       -2.27936       -0.05513
H         -3.00090       -3.59719       -0.15383
H         -3.26181       -3.62147       -2.49591
H         -3.79191       -1.90752       -2.56257
O         -4.71695       -2.12298        1.34730
H         -5.03431       -1.33650       -0.49403
H         -5.36472       -3.07263       -0.39500
H         -4.42762       -2.95125        1.75012
O         -2.61216        2.08016        0.67290
S         -3.26872        2.84412       -0.64745
O         -4.40909        2.04191       -1.09010
O         -3.60393        4.14407       -0.07973
O         -2.15093        2.87490       -1.62681
H          3.72640        2.29574        2.63889
H         -1.00894       -1.31236        3.97040
H          1.34610        2.25345        1.94881
H         -0.65865        3.14259       -0.42643
