62
ZTX_301_solv.log	Energy: -1483138.6484937
C          1.03243       -2.01788        0.13297
N          0.59996       -2.37218        1.46192
C         -0.04056       -1.51477        2.25403
C          0.08840       -2.21050       -1.07662
H          1.84006       -2.70935       -0.12854
N         -0.59464       -1.92144        3.38148
H         -0.63304       -2.91057        3.60884
H          0.79769       -3.30687        1.80789
N         -0.16216       -0.23232        1.86045
C         -0.33798        1.20853       -0.05181
C         -1.74834        0.90877        0.59599
C         -1.37790        0.54866        2.03823
O          0.01158        2.53760        0.04340
O         -0.33861        0.76207       -1.36622
H         -2.16031       -0.03178        2.54109
H         -1.18075        1.46387        2.61350
O          0.64134       -2.43601       -2.14827
C          1.59491       -0.60069        0.11179
C          0.69064        0.40067        0.85422
N          1.66774        1.25961        1.47616
C          2.88963        0.73406        1.45757
N          2.87686       -0.45663        0.81244
H          1.72117       -0.29150       -0.93429
N          3.94931        1.28760        2.00311
C          4.04819       -1.19306        0.44095
H          4.88204        1.00349        1.68488
H          0.41500        1.15975       -1.82671
C         -2.58418       -0.18317       -0.09746
O          4.60752       -0.75296       -0.78653
H          4.78887       -1.13950        1.24796
H          3.77739       -2.24144        0.28464
C          5.63438        0.11876       -0.73580
O          6.10496        0.57333        0.29076
N          6.02910        0.43579       -1.98494
H          5.75760       -0.14889       -2.77313
O          7.20751        1.11106       -2.12450
H          6.96994        2.03417       -2.30104
H         -3.58400       -0.07493        0.33642
H         -2.68637        0.06834       -1.16003
N         -1.24715       -2.12939       -0.96922
C         -2.22358       -1.67228        0.02264
C         -3.38327       -2.61629       -0.36950
C         -3.27235       -2.63534       -1.89060
O         -1.91439       -2.27674       -2.18236
H         -1.90768       -1.95945        1.02657
C         -4.77416       -2.36375        0.20661
H         -3.08849       -3.60826        0.00542
H         -3.48403       -3.62580       -2.31725
H         -3.91514       -1.88383       -2.37309
O         -5.44653       -1.21615       -0.26065
H         -5.37974       -3.26881        0.02502
H         -4.68099       -2.25400        1.29772
H         -5.66763       -1.34110       -1.19072
O         -2.53140        2.09144        0.72907
S         -3.22505        2.95634       -0.50723
O         -4.18986        2.08476       -1.17944
O         -3.80662        4.06027        0.24831
O         -2.08422        3.34134       -1.37227
H          3.84759        2.19235        2.45326
H         -0.96043       -1.25177        4.05020
H          1.44481        2.17975        1.84241
H         -0.65358        3.03693       -0.48498
