62
ZTX_159_solv.log	Energy: -1483144.0433934
C          1.40854        1.20133        0.62787
N          1.48829        1.52518       -0.77611
C          0.83488        0.83860       -1.71195
C          0.31649        1.82457        1.52319
H          2.31324        1.60872        1.09134
N          0.76691        1.28581       -2.95237
H          1.11361        2.21196       -3.18380
H          2.08264        2.29839       -1.06117
N          0.19512       -0.29400       -1.35949
C         -0.88917       -1.52902        0.36671
C         -1.92722       -0.80869       -0.58192
C         -1.11993       -0.66385       -1.87420
O         -0.98198       -2.90594        0.18160
O         -1.01311       -1.18853        1.69864
H         -1.52052        0.11454       -2.53513
H         -1.08664       -1.61822       -2.41804
O          0.63694        2.02888        2.68999
C          1.42213       -0.31101        0.83837
C          0.52578       -1.07002       -0.16066
N          1.36610       -2.19522       -0.49827
C          2.63233       -2.01702       -0.12498
N          2.74508       -0.89816        0.62226
H          1.09343       -0.53304        1.86184
N          3.62636       -2.82473       -0.41382
C          3.84067       -0.58989        1.49838
H          4.58560       -2.49336       -0.26536
H         -1.93868       -1.39784        1.93865
C         -2.50737        0.53782       -0.10830
O          4.69755        0.40878        0.97395
H          3.43382       -0.16582        2.42298
H          4.40901       -1.49751        1.73659
C          5.68340        0.00861        0.15036
O          5.90298       -1.14920       -0.15329
N          6.36129        1.08018       -0.31154
H          6.28716        1.97350        0.17194
O          7.55305        0.84819       -0.93796
H          7.38725        0.97309       -1.88460
H         -3.34831        0.68798       -0.79410
H         -2.93291        0.42905        0.89731
N         -0.92040        2.07917        1.07130
C         -1.68388        1.83147       -0.14852
C         -2.56469        3.10238       -0.12531
C         -2.83305        3.28499        1.36521
O         -1.79553        2.55697        2.03948
H         -1.03921        1.90380       -1.02373
C         -3.81080        3.08288       -0.99456
H         -1.91800        3.92331       -0.47252
H         -2.79513        4.33775        1.67738
H         -3.79378        2.84554        1.67283
O         -3.51791        2.74496       -2.33346
H         -4.53058        2.33717       -0.62599
H         -4.30692        4.06677       -0.92417
H         -2.93217        3.42231       -2.69394
O         -2.99230       -1.71017       -0.86905
S         -4.27130       -1.96509        0.20111
O         -5.25134       -0.92492       -0.10778
O         -4.65678       -3.32049       -0.17688
O         -3.66906       -1.84708        1.54473
H          3.45823       -3.62538       -1.01473
H          0.40019        0.70121       -3.69622
H          1.04579       -2.95280       -1.09311
H         -1.79630       -3.08759       -0.31368
