62
ZTX_353_solv.log	Energy: -1483139.7466352
C         -0.98449        1.97456        0.18011
N         -0.54005        2.28854        1.51470
C          0.06882        1.39264        2.28882
C         -0.03490        2.15192       -1.02588
H         -1.76744        2.69757       -0.07045
N          0.63037        1.75613        3.42696
H          0.69926        2.73860        3.67530
H         -0.71569        3.21874        1.88370
N          0.15198        0.11670        1.86529
C          0.29267       -1.27472       -0.08600
C          1.70664       -1.04457        0.58195
C          1.33988       -0.70759        2.03077
O         -0.10027       -2.59396       -0.04425
O          0.32137       -0.77922       -1.38221
H          2.13731       -0.16580        2.55277
H          1.10874       -1.62982        2.58174
O         -0.58129        2.40299       -2.09442
C         -1.59281        0.57795        0.13094
C         -0.71581       -0.46771        0.84237
N         -1.71630       -1.31836        1.43879
C         -2.92213       -0.75498        1.44171
N         -2.87269        0.45629        0.83881
H         -1.73681        0.29814       -0.92121
N         -3.99801       -1.29338        1.97031
C         -4.01028        1.26973        0.52943
H         -4.91936       -0.97119        1.65593
H         -0.43588       -1.13867       -1.86745
C          2.58733        0.03701       -0.07208
O         -4.58861        0.95020       -0.72572
H         -4.75167        1.18830        1.33329
H         -3.69447        2.31450        0.45176
C         -5.63050        0.09547       -0.73768
O         -6.10169       -0.43297        0.25231
N         -6.04120       -0.11118       -2.00501
H         -5.76386        0.53049       -2.74539
O         -7.23737       -0.74442       -2.18645
H         -7.02456       -1.65685       -2.43500
H          3.56129       -0.11324        0.40971
H          2.72079       -0.20057       -1.13431
N          1.29946        2.03155       -0.92208
C          2.26478        1.53427        0.06065
C          3.46333        2.42993       -0.32727
C          3.31073        2.55226       -1.84396
O          1.96469        2.15391       -2.13573
H          1.96022        1.81652        1.06976
C          4.84892        1.98520        0.11693
H          3.27020        3.41338        0.12923
H          3.47330        3.57785       -2.20398
H          3.97524        1.86440       -2.38712
O          5.82647        2.93309       -0.25442
H          4.84947        1.80484        1.20745
H          5.13160        1.04411       -0.37727
H          5.62498        3.76076        0.19935
O          2.44781       -2.25553        0.68752
S          3.12783       -3.10344       -0.56977
O          4.13916       -2.24687       -1.19162
O          3.65058       -4.25695        0.15344
O          1.98778       -3.40792       -1.46644
H         -3.92532       -2.21433        2.39233
H          0.97042        1.06084        4.08289
H         -1.52265       -2.26011        1.76438
H          0.55276       -3.09430       -0.58648
