62
ZTX_386_solv.log	Energy: -1483141.5664566
C         -1.34429        1.69667        0.47135
N         -0.79038        2.06161        1.75236
C          0.02565        1.26011        2.43377
C         -0.58065        2.03246       -0.83099
H         -2.25113        2.29619        0.33696
N          0.65774        1.69624        3.50734
H          0.62028        2.67878        3.76228
H         -1.05326        2.95355        2.16188
N          0.23931        0.00874        1.98144
C          0.32383       -1.34307        0.00869
C          1.77230       -0.91017        0.49658
C          1.54706       -0.63368        1.98531
O          0.15094       -2.71601        0.10500
O          0.00903       -0.86307       -1.25250
H          2.31363        0.02313        2.41384
H          1.52415       -1.57857        2.54581
O         -1.27500        2.22897       -1.82159
C         -1.74871        0.22513        0.46773
C         -0.65493       -0.68522        1.05528
N         -1.44997       -1.66706        1.75185
C         -2.69755       -1.24926        1.94955
N         -2.90436       -0.06377        1.33051
H         -1.96295       -0.08854       -0.56193
N         -3.59248       -1.91044        2.64651
C         -4.21846        0.45625        1.07445
H         -4.55289       -1.59225        2.72030
H          0.66367       -1.24352       -1.86525
C          2.39727        0.29626       -0.23053
O         -4.90693       -0.28378        0.08347
H         -4.82160        0.38798        1.98622
H         -4.14092        1.50973        0.78619
C         -4.81785        0.14586       -1.19638
O         -4.22839        1.14265       -1.54990
N         -5.45068       -0.73424       -2.00787
H         -6.12968       -1.38120       -1.61163
O         -5.72586       -0.31635       -3.28133
H         -5.08880       -0.76812       -3.85468
H          3.43049        0.29145        0.13592
H          2.44532        0.09730       -1.30950
N          0.76114        2.09983       -0.88255
C          1.88767        1.72989       -0.02695
C          2.90217        2.79149       -0.52120
C          2.56346        2.90908       -2.00668
O          1.26147        2.32890       -2.15823
H          1.66668        1.96100        1.01544
C          4.36540        2.51527       -0.24872
H          2.63044        3.73018       -0.01613
H          2.54140        3.95285       -2.35043
H          3.24904        2.32926       -2.64184
O          4.53219        2.34551        1.14291
H          4.69699        1.62164       -0.80671
H          4.95856        3.36794       -0.62547
H          5.44641        2.08660        1.30539
O          2.68792       -1.99873        0.45900
S          3.27790       -2.61513       -0.96580
O          4.33807       -1.71472       -1.41891
O          3.72232       -3.93575       -0.53723
O          2.09043       -2.63113       -1.85986
H         -3.33329       -2.77657        3.10873
H          1.16216        1.05306        4.10877
H         -1.05594       -2.51026        2.15841
H          0.71875       -3.11020       -0.58109
