62
ZTX_339_solv.log	Energy: -1483138.0065264
C         -1.05938        1.78969        0.74432
N         -0.48187        1.58381        2.04964
C          0.25863        0.51477        2.33819
C         -0.25941        2.51552       -0.36150
H         -1.89543        2.48471        0.87601
N          0.92187        0.43950        3.47768
H          0.96101        1.24125        4.10012
H         -0.67197        2.26226        2.78192
N          0.36364       -0.46253        1.41870
C          0.33642       -0.95973       -0.92132
C          1.80577       -0.90158       -0.33157
C          1.59124       -1.20582        1.16385
O          0.04696       -2.18984       -1.48201
O          0.07916        0.02247       -1.85848
H          2.41324       -0.84155        1.79047
H          1.43806       -2.27349        1.36182
O         -0.93075        3.12266       -1.18862
C         -1.60303        0.47799        0.18632
C         -0.59018       -0.67113        0.33108
N         -1.46164       -1.78375        0.61866
C         -2.68040       -1.38894        0.97925
N         -2.77478       -0.04038        0.90595
H         -1.85588        0.61552       -0.87276
N         -3.64460       -2.19508        1.36285
C         -3.98960        0.70121        1.06126
H         -4.61713       -1.87120        1.31361
H          0.68103       -0.09559       -2.60753
C          2.55072        0.43482       -0.53529
O         -4.73574        0.79116       -0.14367
H         -4.59438        0.25765        1.86083
H         -3.74773        1.73150        1.33742
C         -5.75137       -0.06731       -0.31610
O         -6.04601       -0.95680        0.46784
N         -6.39978        0.12482       -1.48192
H         -7.29340       -0.34531       -1.61088
O         -6.23203        1.28264       -2.18949
H         -5.64038        1.06444       -2.92566
H          2.60320        0.63769       -1.61468
H          3.57065        0.18469       -0.21607
N          1.08213        2.48209       -0.42365
C          2.16837        1.72707        0.20123
C          3.26955        2.80651        0.11675
C          2.96319        3.48666       -1.21768
O          1.60760        3.13685       -1.53153
H          1.95813        1.56548        1.25879
C          4.70394        2.34288        0.27197
H          3.06692        3.51770        0.93128
H          3.05298        4.58058       -1.16570
H          3.59415        3.10591       -2.03447
O          5.51350        3.49785        0.33599
H          4.79407        1.73372        1.19087
H          4.99932        1.70774       -0.58106
H          6.43439        3.21418        0.31781
O          2.62249       -1.81256       -1.05692
S          3.02234       -3.32959       -0.52917
O          3.77834       -3.14227        0.71113
O          1.70891       -3.99181       -0.32534
O          3.78322       -3.83193       -1.66502
H         -3.46571       -3.19490        1.37378
H          1.37140       -0.42443        3.76247
H         -1.17073       -2.75483        0.55658
H          0.56993       -2.91288       -1.06931
