62
ZTX_229_solv.log	Energy: -1483142.6362975
C          1.56264        0.83539        0.78871
N          1.75191        1.19624       -0.59449
C          1.13380        0.55795       -1.58675
C          0.44387        1.48534        1.62540
H          2.45858        1.18600        1.31139
N          1.21477        1.00149       -2.82748
H          1.65813        1.89383       -3.02352
H          2.51494        1.83189       -0.81636
N          0.37483       -0.51527       -1.29075
C         -0.94131       -1.56620        0.40604
C         -1.83909       -0.81887       -0.67341
C         -0.91931       -0.79327       -1.89689
O         -1.15468       -2.93596        0.37073
O         -1.07813       -1.04624        1.68314
H         -1.19829       -0.02022       -2.62262
H         -0.92460       -1.77357       -2.39411
O          0.65979        1.56619        2.83009
C          1.49417       -0.67900        0.94278
C          0.53732       -1.31959       -0.07877
N          1.22848       -2.55215       -0.37989
C          2.51923       -2.47810       -0.05414
N          2.76444       -1.35638        0.65132
H          1.16747       -0.92612        1.96084
N          3.41687       -3.38351       -0.36977
C          3.99969       -1.11621        1.35506
H          4.39072       -3.27658       -0.10648
H         -2.01328       -1.15928        1.93047
C         -2.33446        0.58959       -0.28791
O          5.03946       -0.75310        0.46874
H          3.83110       -0.34385        2.11403
H          4.34716       -2.03178        1.85080
C          5.18226        0.55013        0.14520
O          4.54767        1.45996        0.63611
N          6.17101        0.68151       -0.76610
H          6.47658       -0.12471       -1.30742
O          6.28608        1.88962       -1.39423
H          7.05188        2.32943       -0.99481
H         -3.05682        0.81930       -1.08107
H         -2.90925        0.53611        0.64648
N         -0.69747        1.93390        1.07726
C         -1.39240        1.80020       -0.20342
C         -2.16073        3.14033       -0.18088
C         -2.49785        3.30390        1.30194
O         -1.61103        2.42204        2.00374
H         -0.67898        1.84668       -1.02771
C         -3.35239        3.27489       -1.10798
H         -1.43566        3.91672       -0.46684
H         -2.34632        4.33192        1.65942
H         -3.52420        2.98313        1.53389
O         -3.78355        4.61766       -1.03627
H         -3.05135        3.00015       -2.13625
H         -4.16073        2.58877       -0.80024
H         -4.60780        4.69185       -1.52994
O         -2.95559       -1.60747       -1.06759
S         -4.25540       -1.87361       -0.06769
O         -5.09226       -0.67463       -0.11942
O         -4.83522       -3.06538       -0.67492
O         -3.63368       -2.10597        1.26206
H          3.14713       -4.19492       -0.91709
H          0.86781        0.44532       -3.60203
H          0.83711       -3.26673       -0.98600
H         -2.05243       -3.07908        0.72004
