62
ZTX_518_solv.log	Energy: -1483135.5313843
C         -1.49639        1.40478        0.84393
N         -1.00536        1.49103        2.19836
C         -0.16435        0.59734        2.71672
C         -0.71574        2.06208       -0.31656
H         -2.43208        1.97323        0.80833
N          0.40811        0.81129        3.88731
H          0.30695        1.70847        4.35225
H         -1.33064        2.25348        2.78611
N          0.13739       -0.50847        2.00604
C          0.37336       -1.40353       -0.20397
C          1.76427       -0.98120        0.41071
C          1.48686       -1.05913        1.91514
O          0.39968       -2.78388       -0.35782
O          0.05147       -0.75877       -1.38005
H          2.19808       -0.47165        2.50765
H          1.51350       -2.10456        2.25239
O         -1.38669        2.42265       -1.27767
C         -1.80863       -0.04362        0.48894
C         -0.68763       -1.00957        0.90695
N         -1.45606       -2.16035        1.32218
C         -2.73540       -1.85989        1.53977
N         -2.98205       -0.57404        1.20062
H         -1.96366       -0.12932       -0.59553
N         -3.61444       -2.70981        2.01671
C         -4.30241       -0.05763        0.96745
H         -4.59361       -2.46574        2.11724
H          0.79103       -0.96913       -1.98964
C          2.31116        0.40144       -0.00820
O         -4.77285       -0.41620       -0.31710
H         -4.99903       -0.47487        1.70228
H         -4.29531        1.03151        1.08104
C         -4.71507        0.52204       -1.29310
O         -4.45002        1.68981       -1.11559
N         -4.96310       -0.06403       -2.48698
H         -5.40751       -0.97957       -2.51794
O         -5.24883        0.75940       -3.54093
H         -4.44924        0.77909       -4.08813
H          3.35634        0.37590        0.31896
H          2.34300        0.46156       -1.10373
N          0.61494        2.22972       -0.27458
C          1.73016        1.71766        0.52420
C          2.68427        2.92146        0.35452
C          2.45114        3.30176       -1.10360
O          1.14503        2.80491       -1.42724
H          1.45627        1.67640        1.57857
C          4.13833        2.78807        0.79847
H          2.26061        3.71804        0.98492
H          2.47344        4.38829       -1.26624
H          3.16341        2.81526       -1.78702
O          4.94920        1.91821        0.04130
H          4.57350        3.80260        0.82149
H          4.15073        2.41044        1.83201
H          5.04503        2.27300       -0.85037
O          2.75209       -1.96097        0.14130
S          3.42017       -2.15316       -1.37274
O          2.40210       -1.67823       -2.33655
O          4.63115       -1.32708       -1.35969
O          3.66066       -3.59313       -1.40473
H         -3.32229       -3.65035        2.26479
H          0.94030        0.07842        4.34500
H         -1.02445       -3.04081        1.58858
H         -0.40078       -3.04245       -0.83672
