62
ZTX_461_solv.log	Energy: -1483138.2267132
C          1.54311        1.02401        0.79795
N          1.73202        1.32837       -0.59885
C          1.13645        0.62536       -1.56186
C          0.38678        1.66175        1.59825
H          2.41122        1.43369        1.32512
N          1.19947        1.01790       -2.82052
H          1.60764        1.91753       -3.05598
H          2.43998        2.01252       -0.85509
N          0.41917       -0.46169       -1.21777
C         -0.87114       -1.50449        0.51397
C         -1.78481       -0.85110       -0.59957
C         -0.85713       -0.81768       -1.81768
O         -1.01292       -2.87216        0.57446
O         -1.14281       -0.89507        1.73202
H         -1.17068       -0.08187       -2.56764
H         -0.81420       -1.81206       -2.28368
O          0.59869        1.81353        2.79698
C          1.52840       -0.48812        1.01686
C          0.60968       -1.21546        0.02259
N          1.36895       -2.42148       -0.23375
C          2.66196       -2.24504        0.05210
N          2.82600       -1.11331        0.76512
H          1.22323       -0.69395        2.05145
N          3.62901       -3.07028       -0.28125
C          4.01357       -0.70352        1.45633
H          4.58998       -2.72132       -0.25796
H         -0.78607       -1.45149        2.43933
C         -2.35996        0.53717       -0.26188
O          4.65802        0.36209        0.78221
H          3.73509       -0.30203        2.43706
H          4.69123       -1.55416        1.59548
C          5.39570        0.03900       -0.29001
O          5.70143       -1.10161       -0.59587
N          5.73692        1.11661       -1.02447
H          6.47593        1.01513       -1.71712
O          5.53966        2.37988       -0.53997
H          4.75246        2.72000       -0.99213
H         -3.10066        0.69656       -1.05506
H         -2.91616        0.47760        0.68133
N         -0.78023        2.01592        1.03518
C         -1.47672        1.79576       -0.23428
C         -2.31094        3.09616       -0.26125
C         -2.65229        3.29778        1.21466
O         -1.71114        2.50106        1.94655
H         -0.76942        1.84119       -1.06453
C         -3.52022        3.14017       -1.18411
H         -1.62217        3.89491       -0.57822
H         -2.56325        4.34630        1.53109
H         -3.65679        2.92474        1.46396
O         -4.15146        4.40135       -1.13227
H         -3.21169        2.88014       -2.21312
H         -4.27649        2.40723       -0.86745
H         -3.52511        5.06200       -1.45252
O         -2.84143       -1.71854       -0.99587
S         -4.17188       -2.12379       -0.08664
O         -4.94193       -0.90053        0.14711
O         -4.80259       -3.09352       -0.97513
O         -3.60659       -2.70563        1.15338
H          3.41341       -3.86726       -0.87236
H          0.86751        0.41896       -3.56944
H          1.03270       -3.14574       -0.86164
H         -1.94671       -3.03938        0.83841
