62
ZTX_23_solv.log	Energy: -1483141.9517662
C          1.53403        0.93539        1.00628
N          1.78348        1.32282       -0.36069
C          1.28790        0.63569       -1.39043
C          0.33016        1.50951        1.78030
H          2.36414        1.33885        1.59599
N          1.45193        1.07275       -2.62566
H          1.87562        1.98048       -2.79291
H          2.58073        1.94734       -0.53677
N          0.56448       -0.47658       -1.14872
C         -0.80010       -1.63312        0.43829
C         -1.66118       -0.91470       -0.67426
C         -0.67214       -0.81977       -1.84086
O         -1.00805       -2.99825        0.29340
O         -1.06080       -1.20096        1.72290
H         -0.94604       -0.04815       -2.57010
H         -0.59017       -1.78915       -2.35253
O          0.46507        1.58801        2.99670
C          1.54916       -0.58549        1.14384
C          0.69485       -1.27564        0.07011
N          1.48244       -2.46516       -0.18730
C          2.76684       -2.26248        0.13376
N          2.87818       -1.16168        0.89998
H          1.19980       -0.86831        2.14551
N          3.75040       -3.05690       -0.22029
C          4.07599       -0.62187        1.47326
H          4.71463       -2.75540       -0.10243
H         -2.01972       -1.35784        1.85223
C         -2.24770        0.46812       -0.30951
O          4.50964        0.51900        0.75047
H          3.86506       -0.26203        2.48623
H          4.86074       -1.38562        1.52202
C          5.10317        0.30071       -0.43372
O          5.54375       -0.77134       -0.79565
N          5.21017        1.43928       -1.16483
H          5.46706        1.33817       -2.14457
O          4.36708        2.49194       -0.91586
H          4.85515        3.12156       -0.36263
H         -2.93312        0.65621       -1.14484
H         -2.87064        0.37384        0.58922
N         -0.79625        1.89850        1.16249
C         -1.39366        1.73443       -0.16285
C         -2.24798        3.02114       -0.18663
C         -2.69117        3.15179        1.27112
O         -1.79416        2.32768        2.02866
H         -0.62958        1.83349       -0.93552
C         -3.38414        3.07789       -1.18877
H         -1.56016        3.84625       -0.42394
H         -2.63293        4.18511        1.64019
H         -3.70647        2.76109        1.43419
O         -3.91199        4.38673       -1.14770
H         -2.99894        2.82780       -2.19508
H         -4.16121        2.33640       -0.93330
H         -4.70740        4.40223       -1.69159
O         -2.71772       -1.74952       -1.11346
S         -4.08143       -2.00476       -0.18777
O         -5.02982       -0.97077       -0.61483
O         -4.44440       -3.36457       -0.57641
O         -3.65210       -1.85943        1.22068
H          3.56095       -3.82957       -0.85151
H          1.19404        0.49514       -3.41903
H          1.19326       -3.15599       -0.87474
H         -0.54189       -3.44469        1.01432
