62
ZTX_164_solv.log	Energy: -1483136.4101485
C         -1.11992        1.77373        0.48551
N         -0.59186        2.05626        1.79797
C          0.13393        1.17745        2.48667
C         -0.28875        2.07730       -0.77940
H         -1.97479        2.44249        0.33978
N          0.75660        1.53860        3.59343
H          0.77767        2.51383        3.87628
H         -0.79790        2.95661        2.22132
N          0.26644       -0.07590        2.00976
C          0.35754       -1.39043        0.00855
C          1.79587       -1.06606        0.56733
C          1.51951       -0.82298        2.05421
O          0.18601       -2.76535        0.09466
O          0.12706       -0.91861       -1.26712
H          2.30997       -0.24286        2.54454
H          1.39397       -1.77984        2.58001
O         -0.93488        2.33643       -1.78908
C         -1.62341        0.33684        0.40512
C         -0.63076       -0.66408        1.01595
N         -1.53297       -1.60489        1.64182
C         -2.75935       -1.10550        1.78145
N         -2.85188        0.10499        1.17835
H         -1.80277        0.07438       -0.64566
N         -3.73711       -1.71370        2.40804
C         -4.10009        0.63397        0.72599
H         -4.66357       -1.30503        2.46789
H          0.83094       -1.32382       -1.81651
C          2.53417        0.12542       -0.08376
O         -4.50495       -0.12341       -0.40803
H         -4.85562        0.57215        1.52115
H         -3.97483        1.68995        0.45576
C         -5.61644        0.29806       -1.03428
O         -6.28573        1.24193       -0.67367
N         -5.83463       -0.45947       -2.14092
H         -5.40861       -1.38310       -2.19313
O         -7.08388       -0.37921       -2.69780
H         -6.97722        0.12400       -3.51846
H          3.54122        0.03525        0.34156
H          2.63237       -0.05462       -1.16199
N          1.05314        2.03450       -0.78615
C          2.11768        1.58814        0.11462
C          3.22296        2.57355       -0.33281
C          2.94979        2.72638       -1.83016
O          1.61600        2.24222       -2.03787
H          1.86535        1.82655        1.14871
C          4.66425        2.20625       -0.00946
H          3.00279        3.52945        0.16747
H          3.01422        3.77040       -2.16709
H          3.61754        2.10277       -2.44249
O          5.55329        3.21467       -0.43892
H          4.76390        2.00932        1.07346
H          4.95916        1.29107       -0.54360
H          5.35787        4.01705        0.06046
O          2.63449       -2.20524        0.50342
S          3.28093       -2.74697       -0.93522
O          4.58785       -2.08991       -1.03331
O          3.33496       -4.18755       -0.70493
O          2.33462       -2.32729       -1.99253
H         -3.57229       -2.61005        2.85591
H          1.17857        0.84438        4.20144
H         -1.20765       -2.44594        2.11115
H         -0.65993       -2.98342       -0.32217
