62
ZTX_249_solv.log	Energy: -1483144.3605178
C          1.53665        0.94425        1.01474
N          1.79600        1.32246       -0.35245
C          1.30333        0.62716       -1.37729
C          0.32540        1.52525        1.77201
H          2.36183        1.35072        1.60912
N          1.48132        1.04719       -2.61649
H          1.91621        1.94839       -2.79033
H          2.60024        1.93784       -0.53000
N          0.56820       -0.47519       -1.12645
C         -0.81046       -1.57607        0.48526
C         -1.66522       -0.88804       -0.66817
C         -0.66155       -0.82058       -1.82313
O         -0.95784       -2.95487        0.46148
O         -1.05754       -1.04486        1.74113
H         -0.92330       -0.06308       -2.57136
H         -0.58207       -1.80139       -2.31296
O          0.45130        1.61498        2.98845
C          1.54773       -0.57623        1.16241
C          0.68136       -1.26701        0.09879
N          1.45100       -2.46782       -0.14752
C          2.73734       -2.27925        0.16405
N          2.86922       -1.16438        0.90864
H          1.20532       -0.85024        2.16867
N          3.70793       -3.09585       -0.17773
C          4.07631       -0.62947        1.46601
H          4.67735       -2.80887       -0.06962
H         -1.99980       -1.20148        1.93007
C         -2.26212        0.49421       -0.33815
O          4.51295        0.50142        0.72927
H          3.87753       -0.25812        2.47730
H          4.85566       -1.39856        1.51537
C          5.09060        0.26698       -0.45959
O          5.51180       -0.81337       -0.81929
N          5.20604        1.39983       -1.19895
H          5.44762        1.28840       -2.18147
O          4.37855        2.46455       -0.94733
H          4.87951        3.09034       -0.40133
H         -2.92458        0.68354       -1.19192
H         -2.91109        0.41622        0.54445
N         -0.79789        1.90957        1.14402
C         -1.39379        1.75144       -0.18290
C         -2.23696        3.04707       -0.20803
C         -2.67516        3.18592        1.25090
O         -1.80161        2.33486        2.00524
H         -0.62741        1.84018       -0.95497
C         -3.38699        3.12113       -1.20195
H         -1.53741        3.86304       -0.44755
H         -2.58921        4.21677        1.62196
H         -3.70027        2.82266        1.41541
O         -4.03237        4.37452       -1.13536
H         -3.01299        2.90864       -2.22010
H         -4.15384        2.36947       -0.96425
H         -3.39247        5.05300       -1.38373
O         -2.70584       -1.73979       -1.13204
S         -4.06068       -2.06020       -0.22595
O         -4.95314       -0.90917       -0.36334
O         -4.53066       -3.29090       -0.84965
O         -3.52775       -2.23708        1.15031
H          3.50393       -3.87474       -0.79652
H          1.22492        0.46309       -3.40553
H          1.13321       -3.19277       -0.78406
H         -1.87218       -3.13362        0.74641
