3
Water_solv.log	Energy:  -47962.8060333
O          0.00000       -0.00000        0.12054
H         -0.00000        0.75301       -0.48215
H         -0.00000       -0.75301       -0.48215
