41
GTX_ketone_18_solv.log	Energy: -1065947.9679995
C         -2.73550        1.00169        0.07902
N         -2.35145        1.82258       -1.06533
C         -1.39164        1.35110       -1.87167
C         -3.39677       -0.29280       -0.43412
H         -3.46822        1.56950        0.66381
N         -1.37105        1.62189       -3.16158
H         -2.15758        2.09574       -3.59553
H         -0.55520        1.41481       -3.72857
H         -3.03932        2.45794       -1.45993
N         -0.44679        0.56772       -1.31360
C          0.47922       -0.78870        0.33043
C          1.15227       -1.14319       -1.00208
C          0.19418       -0.55856       -2.02246
O          0.48790       -1.39930        1.35838
O          2.36626       -0.41901       -1.14901
H          1.30404       -2.22545       -1.10356
H         -0.56823       -1.29197       -2.31723
H          0.75273       -0.22396       -2.90497
H         -4.41116       -0.05359       -0.77700
H         -2.83263       -0.70980       -1.27836
O         -3.51717       -1.27127        0.58025
C         -2.65266       -2.31532        0.54618
O         -1.81143       -2.45995       -0.32654
H         -2.26959       -3.96351        1.66564
N         -2.84405       -3.13400        1.58461
H         -3.57929       -2.95846        2.25854
C         -1.51358        0.77729        0.96615
C         -0.22888        0.56804        0.12294
N          0.64925        1.64000        0.56980
C          0.07020        2.34204        1.56212
N         -1.18218        1.94948        1.75538
H         -1.67770       -0.07996        1.63281
N          0.68080        3.29700        2.22827
H          1.66681        1.48356        0.58132
H         -1.81272        2.36497        2.43322
H          0.21275        3.77412        2.99154
H          1.63949        3.54198        2.00416
S          3.57474       -0.56462       -0.00771
O          4.74881       -0.17226       -0.77760
O          3.17132        0.40994        1.02849
O          3.52896       -1.95867        0.43796
