41
GTX_ketone_4_solv.log	Energy: -1065945.8078860
C         -2.42265        1.47001        0.57272
N         -2.57919        0.65767        1.77010
C         -1.82866       -0.40430        2.04672
C         -1.40296        2.59844        0.69684
H         -3.38548        1.97529        0.42149
N         -1.77018       -0.87906        3.28025
H         -2.20115       -0.36610        4.04276
H         -1.38824       -1.79840        3.47333
H         -3.16372        1.02577        2.51536
N         -1.14106       -1.00908        1.05561
C          0.17628       -0.51669       -0.81108
C          1.06296       -0.90288        0.35803
C          0.13150       -1.70877        1.26080
O          0.50435       -0.18679       -1.91462
O          2.22626       -1.58662       -0.00157
H          1.29547        0.02978        0.89755
H          0.44373       -1.67031        2.30859
H          0.06242       -2.75728        0.93685
H         -1.62828        3.34581       -0.07318
H         -1.49680        3.06554        1.68654
O         -0.05480        2.16573        0.54451
C          0.66299        2.71771       -0.47179
O          0.15237        3.37271       -1.36424
H          2.55303        2.67344       -1.15991
N          1.97108        2.45793       -0.35918
H          2.35578        1.82354        0.33935
C         -2.19170        0.57258       -0.63833
C         -1.29506       -0.65495       -0.35028
N         -1.96129       -1.69355       -1.11130
C         -3.21089       -1.32692       -1.43870
N         -3.41755       -0.05478       -1.10619
H         -1.73432        1.16000       -1.44960
N         -4.09128       -2.11825       -2.00874
H         -1.65415       -2.66260       -1.09876
H         -4.21059        0.48473       -1.44016
H         -5.01295       -1.76971       -2.25117
H         -3.86101       -3.08781       -2.20062
S          3.65566       -0.71140       -0.07193
O          4.63922       -1.76685        0.14382
O          3.66435       -0.10533       -1.40508
O          3.53964        0.27203        1.02333
