41
GTX_ketone_7_solv.log	Energy: -1065944.6680401
C         -2.44433        1.07691        0.83997
N         -2.70595       -0.00353        1.77750
C         -1.80008       -0.97006        1.94024
C         -1.32667        1.97849        1.37878
H         -3.36378        1.66729        0.74794
N         -1.74537       -1.68774        3.04615
H         -2.30633       -1.42779        3.85148
H         -1.18420       -2.53194        3.09364
H         -3.41435        0.12231        2.49462
N         -0.92904       -1.19072        0.93590
C          0.27795       -0.45654       -0.92141
C          1.24476       -0.81916        0.18910
C          0.42482       -1.72128        1.11083
O          0.53710       -0.06628       -2.02330
O          2.40474       -1.43467       -0.29483
H          1.46291        0.12961        0.71203
H          0.73896       -1.63820        2.15717
H          0.49445       -2.77020        0.78643
H         -1.64927        2.40983        2.33563
H         -0.40084        1.40868        1.54160
O         -1.09357        3.03788        0.47089
C          0.12953        3.14062       -0.10233
O          1.07172        2.42339        0.18605
H          1.01688        4.32561       -1.49153
N          0.14983        4.12279       -1.01047
H         -0.67224        4.68653       -1.18761
C         -2.12006        0.49292       -0.53079
C         -1.16166       -0.72258       -0.42167
N         -1.81542       -1.70701       -1.25793
C         -3.04110       -1.31034       -1.62913
N         -3.28154       -0.07925       -1.18722
H         -1.67261        1.26636       -1.17097
N         -3.87595       -2.04027       -2.33552
H         -1.45861       -2.64815       -1.39434
H         -4.08624        0.47233       -1.46708
H         -4.78662       -1.67301       -2.59076
H         -3.62368       -2.98148       -2.61812
S          3.82483       -0.56490       -0.10763
O          4.79783       -1.52772       -0.61848
O          3.63465        0.63706       -0.92771
O          3.90173       -0.29631        1.33505
