41
GTX_ketone_9_solv.log	Energy: -1065947.3420400
C          2.75170        1.15642       -0.20466
N          2.58284        1.39058        1.22642
C          1.71460        0.65363        1.92500
C          3.56230       -0.09833       -0.50409
H          3.34193        1.99356       -0.59799
N          1.92582        0.37106        3.19749
H          2.80657        0.62393        3.63481
H          1.18952       -0.00741        3.78375
H          3.38650        1.75548        1.73092
N          0.60866        0.20036        1.30571
C         -0.47835       -0.59727       -0.56796
C         -1.07383       -1.33371        0.63895
C         -0.04645       -1.05621        1.72094
O         -0.47937       -0.93553       -1.71504
O         -2.27939       -0.71968        1.06711
H         -1.21218       -2.40118        0.42447
H          0.70075       -1.85891        1.78008
H         -0.55083       -0.95285        2.69043
H          3.76607       -0.14823       -1.58095
H          4.51556       -0.04993        0.03932
O          2.89264       -1.27743       -0.07798
C          2.49187       -2.16658       -1.01875
O          2.60140       -1.97293       -2.21680
H          1.60523       -3.99328       -1.05335
N          1.96485       -3.26078       -0.45461
H          1.93270       -3.36850        0.55163
C          1.39068        1.18734       -0.90137
C          0.22660        0.66312       -0.01690
N         -0.71169        1.77797        0.01170
C         -0.26692        2.78491       -0.76517
N          0.95698        2.53730       -1.21147
H          1.43871        0.58666       -1.82147
N         -0.96576        3.86820       -1.02207
H         -1.72100        1.57994        0.03739
H          1.48894        3.17505       -1.79524
H         -0.59716        4.58413       -1.63913
H         -1.88694        3.98970       -0.61511
S         -3.55446       -0.57159       -0.00103
O         -4.68507       -0.45038        0.91066
O         -3.22204        0.66926       -0.73307
O         -3.51545       -1.77775       -0.83002
