41
GTX_ketone_5_solv.log	Energy: -1065945.8053885
C         -2.42275        1.47020        0.57205
N         -2.57888        0.65857        1.76996
C         -1.82828       -0.40324        2.04703
C         -1.40342        2.59901        0.69521
H         -3.38571        1.97521        0.42072
N         -1.76959       -0.87731        3.28081
H         -2.20051       -0.36397        4.04309
H         -1.38787       -1.79668        3.47428
H         -3.16321        1.02713        2.51515
N         -1.14092       -1.00861        1.05611
C          0.17608       -0.51721       -0.81110
C          1.06296       -0.90283        0.35803
C          0.13166       -1.70823        1.26140
O          0.50394       -0.18785       -1.91487
O          2.22620       -1.58669       -0.00144
H          1.29550        0.03013        0.89704
H          0.44413       -1.66935        2.30909
H          0.06246       -2.75688        0.93793
H         -1.62872        3.34536       -0.07580
H         -1.49785        3.06733        1.68429
O         -0.05506        2.16652        0.54396
C          0.66311        2.71787       -0.47245
O          0.15282        3.37226       -1.36555
H          2.55341        2.67330       -1.15985
N          1.97116        2.45824       -0.35923
H          2.35562        1.82432        0.33981
C         -2.19184        0.57213       -0.63853
C         -1.29518       -0.65523       -0.34994
N         -1.96151       -1.69427       -1.11026
C         -3.21103       -1.32778       -1.43801
N         -3.41771       -0.05547       -1.10608
H         -1.73448        1.15915       -1.45010
N         -4.09137       -2.11935       -2.00782
H         -1.65413       -2.66324       -1.09772
H         -4.21061        0.48391       -1.44058
H         -5.01303       -1.77089       -2.25041
H         -3.86110       -3.08899       -2.19926
S          3.65567       -0.71155       -0.07184
O          4.63918       -1.76723        0.14300
O          3.66400       -0.10476       -1.40467
O          3.54007        0.27129        1.02398
