41
GTX_ketone_31_solv.log	Energy: -1065948.8872067
C          2.57315        1.38566       -0.23841
N          2.39457        1.50671        1.20172
C          1.47602        0.77738        1.83993
C          3.31933        0.12226       -0.63624
H          3.19405        2.22832       -0.56669
N          1.60389        0.49744        3.12586
H          2.45629        0.74235        3.61940
H          0.82208        0.13700        3.66256
H          3.16389        1.87850        1.75095
N          0.40445        0.32831        1.16078
C         -0.35809       -0.54362       -0.85151
C         -0.77903       -1.52986        0.24654
C         -0.33739       -0.87502        1.56214
O         -0.31106       -0.75738       -2.02840
O         -2.12560       -1.95047        0.20642
H         -0.19418       -2.44035        0.05818
H          0.33260       -1.54053        2.12131
H         -1.20426       -0.62580        2.18612
H          3.39820        0.07212       -1.73047
H          4.33229        0.13609       -0.20711
O          2.61050       -1.00079       -0.13156
C          2.88391       -2.20674       -0.67138
O          3.56194       -2.34999       -1.67247
H          1.83324       -2.99695        0.90712
N          2.31090       -3.19270        0.03530
H          2.43855       -4.15055       -0.26605
C          1.21944        1.51652       -0.92656
C          0.08773        0.77411       -0.18389
N         -0.99145        1.74137       -0.21174
C         -0.56207        2.93943       -0.62001
N          0.72983        2.88405       -0.94698
H          1.28693        1.11954       -1.95046
N         -1.31342        4.01802       -0.68458
H         -1.91418        1.51800        0.18376
H          1.20775        3.62773       -1.44601
H         -0.92829        4.88976       -1.03225
H         -2.28636        3.98120       -0.40033
S         -3.36880       -0.85938        0.00183
O         -4.51390       -1.66480        0.40039
O         -3.05222        0.26599        0.91119
O         -3.31304       -0.47624       -1.41125
