41
GTX_ketone_17_solv.log	Energy: -1065946.1147444
C         -2.40069        0.54729        0.53017
N         -1.94103        1.87109        0.92676
C         -0.85502        2.38132        0.33823
C         -2.94509        0.58302       -0.90418
H         -3.21912        0.26875        1.20447
N         -0.69844        3.68232        0.18574
H         -1.45832        4.31636        0.41328
H          0.19888        4.07554       -0.07828
H         -2.62326        2.52034        1.30908
N          0.07993        1.51884       -0.10984
C          0.80826       -0.53713       -0.87111
C          1.71404        0.52678       -1.50417
C          0.88741        1.78535       -1.31946
O          0.60132       -1.65308       -1.24805
O          2.89702        0.70824       -0.74264
H          1.93368        0.29326       -2.55378
H          0.22236        1.95144       -2.17908
H          1.54907        2.65056       -1.19032
H         -3.73957        1.33904       -0.96758
H         -2.15030        0.83813       -1.61917
O         -3.42468       -0.68552       -1.30806
C         -4.65177       -1.05315       -0.87047
O         -5.34959       -0.34013       -0.16938
H         -5.88079       -2.65748       -1.07601
N         -4.97098       -2.27815       -1.30544
H         -4.34997       -2.79102       -1.91898
C         -1.27421       -0.46683        0.69346
C          0.10995        0.13291        0.33333
N          0.89344       -0.06803        1.54349
C          0.16639       -0.71579        2.47483
N         -1.08543       -0.88381        2.07045
H         -1.47577       -1.33976        0.05671
N          0.65256       -1.11063        3.63099
H          1.90128       -0.26202        1.46408
H         -1.81930       -1.29587        2.63763
H          0.07027       -1.62012        4.28728
H          1.61966       -0.91951        3.87051
S          3.91925       -0.58799       -0.49124
O          5.18246        0.08515       -0.21737
O          3.31552       -1.25692        0.68117
O          3.85887       -1.38072       -1.72052
