41
GTX_ketone_22_solv.log	Energy: -1065951.0436116
C          2.75683        0.76273        0.37190
N          2.27255        1.64826        1.41893
C          1.05170        1.46150        1.92817
C          3.03245       -0.62850        0.95815
H          3.69533        1.18191       -0.01015
N          0.73413        1.89638        3.13402
H          1.45281        2.26959        3.74625
H         -0.23295        1.94016        3.43864
H          2.94067        2.19808        1.95135
N          0.15324        0.80061        1.17447
C         -0.42547       -0.67339       -0.52983
C         -1.15378       -1.09673        0.74370
C         -1.01651        0.09585        1.70061
O         -0.36959       -1.27175       -1.56615
O         -2.45049       -1.58263        0.51396
H         -0.57578       -1.94957        1.13320
H         -0.82542       -0.23092        2.72958
H         -1.90951        0.73584        1.69224
H          3.85667       -0.55134        1.67965
H          2.14684       -1.02242        1.47533
O          3.42398       -1.52033       -0.06795
C          2.63692       -2.59530       -0.31626
O          1.66703       -2.89101        0.36095
H          3.89172       -2.96298       -1.89716
N          3.07299       -3.26911       -1.38625
H          2.58517       -4.11021       -1.66714
C          1.75369        0.73908       -0.77652
C          0.29408        0.66572       -0.26710
N         -0.35483        1.73163       -0.99999
C          0.52069        2.43664       -1.72639
N          1.75459        1.96924       -1.54911
H          1.96066       -0.11554       -1.43596
N          0.19644        3.45226       -2.49705
H         -1.37146        1.77719       -1.07391
H          2.56026        2.29519       -2.07270
H          0.90562        3.93177       -3.04111
H         -0.76737        3.76336       -2.55316
S         -3.60930       -0.52382       -0.06541
O         -4.24658        0.02893        1.13242
O         -2.83333        0.46999       -0.83607
O         -4.44998       -1.40563       -0.86618
