41
GTX_ketone_6_solv.log	Energy: -1065943.9080760
C          2.35516       -0.22989        0.69681
N          2.23163        0.74051        1.77120
C          1.06523        1.34094        2.00965
C          1.64793       -1.54047        1.07275
H          3.42337       -0.43592        0.56179
N          0.79707        1.87769        3.18556
H          1.41903        1.72035        3.97244
H          0.00119        2.49459        3.31061
H          2.95266        0.78188        2.48531
N          0.15777        1.38312        1.01276
C         -0.76089        0.45222       -0.91917
C         -1.77044        0.35940        0.21030
C         -1.29355        1.41181        1.21069
O         -0.89611        0.09387       -2.05330
O         -3.07843        0.57349       -0.23609
H         -1.64145       -0.64121        0.66334
H         -1.54989        1.14690        2.24225
H         -1.71631        2.39757        0.96638
H          2.10742       -1.94671        1.98395
H          0.57846       -1.36964        1.25625
O          1.70088       -2.48269        0.01791
C          2.86237       -3.15378       -0.16126
O          3.83801       -2.99894        0.55381
H          3.57863       -4.56592       -1.43352
N          2.78284       -3.98201       -1.20976
H          1.92132       -4.07956       -1.73270
C          1.82352        0.36504       -0.60156
C          0.50744        1.15681       -0.38265
N          0.76078        2.38146       -1.11054
C          2.04901        2.48581       -1.47187
N          2.70566        1.37338       -1.16030
H          1.65658       -0.43995       -1.33075
N          2.57348        3.54102       -2.05541
H          0.10237        3.15436       -1.14316
H          3.66077        1.18196       -1.44546
H          3.55073        3.54284       -2.32814
H          2.00139        4.35487       -2.25424
S         -4.11270       -0.74130       -0.13785
O         -5.34841       -0.14773       -0.64207
O         -3.50027       -1.75789       -1.00133
O         -4.11847       -1.09626        1.28788
