41
GTX_ketone_13_solv.log	Energy: -1065950.8005396
C          2.78344        1.03959       -0.11958
N          2.54472        1.17079        1.30996
C          1.46055        0.66690        1.89977
C          3.36304       -0.30598       -0.52301
H          3.54701        1.78290       -0.37962
N          1.45375        0.42455        3.20036
H          2.30972        0.52151        3.73705
H          0.58925        0.24933        3.70029
H          3.33631        1.40564        1.90166
N          0.37207        0.41808        1.15240
C         -0.45324       -0.34439       -0.87823
C         -0.95718       -1.26714        0.23334
C         -0.70719       -0.49147        1.53323
O         -0.52884       -0.52930       -2.05936
O         -2.24848       -1.77107        0.01521
H         -0.29040       -2.14280        0.21841
H         -0.38178       -1.15907        2.33815
H         -1.59283        0.06361        1.87033
H          3.81386       -0.21511       -1.52302
H          4.14189       -0.60502        0.19004
O          2.32629       -1.27904       -0.57244
C          2.71040       -2.57484       -0.59761
O          3.82230       -2.94194       -0.26492
H          1.90364       -4.36690       -1.10022
N          1.71433       -3.37636       -1.00691
H          0.89103       -2.98673       -1.45131
C          1.51559        1.39219       -0.89203
C          0.22018        0.88036       -0.21969
N         -0.65817        2.02779       -0.31924
C         -0.00320        3.11519       -0.73875
N          1.28057        2.82639       -0.95227
H          1.57552        0.97626       -1.90943
N         -0.55402        4.29802       -0.90648
H         -1.66967        1.93084       -0.20758
H          1.92672        3.46706       -1.40190
H         -0.00528        5.07498       -1.25872
H         -1.53385        4.44068       -0.68568
S         -3.54650       -0.71948        0.08245
O         -3.92899       -0.67641        1.49624
O         -3.00020        0.55712       -0.42356
O         -4.50263       -1.37347       -0.80208
