41
GTX_ketone_1_solv.log	Energy: -1065945.4342292
C         -2.39927        1.56804        0.05265
N         -2.50390        1.16218        1.44501
C         -1.77962        0.19166        1.99529
C         -1.38011        2.66138       -0.21173
H         -3.36282        2.02531       -0.20897
N         -1.67510        0.10599        3.31164
H         -2.05116        0.84317        3.89901
H         -1.32122       -0.73255        3.75814
H         -3.02108        1.77249        2.07164
N         -1.17212       -0.72061        1.20725
C          0.10918       -0.79563       -0.75056
C          1.01282       -0.90636        0.46299
C          0.07852       -1.39966        1.56593
O          0.41629       -0.77438       -1.90734
O          2.13042       -1.72262        0.27328
H          1.29988        0.12191        0.73534
H          0.42820       -1.10486        2.55963
H         -0.04563       -2.49157        1.53203
H         -1.54862        3.04016       -1.22900
H         -1.54000        3.48891        0.49518
O         -0.04781        2.17361       -0.09466
C          0.90277        3.01412       -0.57351
O          0.61921        4.08610       -1.08377
H          2.89746        3.13299       -0.77159
N          2.14754        2.54787       -0.42445
H          2.40022        1.66478        0.01507
C         -2.23247        0.34715       -0.84339
C         -1.35234       -0.76704       -0.24004
N         -2.05525       -1.96134       -0.66521
C         -3.30909       -1.67197       -1.04845
N         -3.48822       -0.35278       -1.07029
H         -1.79386        0.65444       -1.80518
N         -4.21584       -2.57032       -1.35887
H         -1.75818       -2.89713       -0.40109
H         -4.28113        0.08974       -1.52583
H         -5.13868       -2.28417       -1.66913
H         -4.00163       -3.55977       -1.28841
S          3.58978       -0.96445       -0.04740
O          3.55220       -0.64997       -1.47684
O          3.57340        0.23151        0.81915
O          4.53622       -2.00174        0.34781
