41
GTX_ketone_28_solv.log	Energy: -1065950.0735950
C          2.33913        0.62058       -0.14551
N          2.16162        0.24146        1.24957
C          1.10854       -0.50305        1.59885
C          2.68617       -0.57954       -1.03225
H          3.17050        1.33437       -0.18048
N          1.13331       -1.27889        2.66635
H          2.00112       -1.41361        3.17563
H          0.28333       -1.68835        3.04009
H          2.98936        0.19155        1.83688
N          0.01684       -0.43900        0.81680
C         -1.09040       -0.03128       -1.18152
C         -1.54027       -1.39025       -0.64511
C         -1.06805       -1.41856        0.81499
O         -1.32863        0.43635       -2.25815
O         -2.89423       -1.67045       -0.88422
H         -0.97326       -2.13792       -1.22281
H         -0.68500       -2.40684        1.09468
H         -1.86681       -1.13566        1.51457
H          1.83262       -1.26462       -1.12595
H          2.95959       -0.22034       -2.03382
O          3.72922       -1.35076       -0.46521
C          4.98951       -0.87523       -0.58798
O          5.26001        0.14789       -1.19452
H          5.56737       -2.51505        0.50437
N          5.86858       -1.67033        0.03458
H          6.85209       -1.43426       -0.00084
C          1.08390        1.31955       -0.65595
C         -0.20913        0.65339       -0.11483
N         -0.92313        1.76395        0.48039
C         -0.22658        2.90451        0.38876
N          0.95804        2.68239       -0.17349
H          1.07537        1.30427       -1.75584
N         -0.65997        4.07310        0.80951
H         -1.92558        1.69443        0.66386
H          1.63928        3.40874       -0.36854
H         -0.09428        4.90559        0.68323
H         -1.57219        4.15298        1.24568
S         -4.05226       -0.74554       -0.10662
O         -4.30585       -1.44180        1.15694
O         -3.40300        0.57137        0.06145
O         -5.15017       -0.77461       -1.06470
