41
GTX_ketone_20_solv.log	Energy: -1065952.2665648
C          2.82485        0.95103       -0.28802
N          2.67300        0.74254        1.14654
C          1.64109        0.05348        1.63718
C          3.37124       -0.25105       -1.05236
H          3.58328        1.73508       -0.41042
N          1.68642       -0.49351        2.83756
H          2.56950       -0.55713        3.33399
H          0.85433       -0.87543        3.27406
H          3.49788        0.83567        1.73231
N          0.53555       -0.04800        0.87738
C         -0.61531       -0.01334       -1.13590
C         -1.04521       -1.25725       -0.35786
C         -0.51931       -1.04183        1.06870
O         -0.87152        0.25059       -2.27583
O         -2.40322       -1.58207       -0.50164
H         -0.49254       -2.09159       -0.81669
H         -0.09287       -1.96473        1.48065
H         -1.30124       -0.67570        1.74893
H          3.67306        0.09262       -2.05012
H          4.25077       -0.65074       -0.53164
O          2.41555       -1.28231       -1.27332
C          2.44456       -2.36421       -0.46405
O          3.07460       -2.40423        0.57856
H          1.25430       -3.27929       -1.86613
N          1.68975       -3.35736       -0.95491
H          1.60654       -4.21701       -0.42663
C          1.51800        1.48773       -0.87545
C          0.26010        0.86455       -0.21603
N         -0.49886        2.02661        0.20560
C          0.14653        3.16484       -0.07544
N          1.33474        2.90453       -0.61316
H          1.49726        1.29842       -1.95852
N         -0.33175        4.36771        0.16149
H         -1.49794        1.94366        0.40834
H          1.97914        3.61856       -0.93613
H          0.20089        5.19147       -0.09643
H         -1.24041        4.47935        0.59780
S         -3.55516       -0.56283        0.15235
O         -2.95419        0.78169        0.03021
O         -4.69681       -0.80894       -0.71974
O         -3.71948       -1.00966        1.53811
