40
STX_63_solv.log	Energy: -675521.8207559
C          0.64917        1.34741       -0.61350
N          0.93073        1.20809        0.81361
C          0.75464        0.00976        1.38423
C          1.64093        0.56969       -1.48216
H          0.74162        2.41438       -0.84876
N          1.47482       -0.38153        2.41848
H          2.32947        0.11130        2.65829
H          1.24318       -1.23340        2.91809
H          1.63196        1.82326        1.21713
N         -0.20312       -0.77707        0.86718
C         -1.89732       -1.48446       -0.61509
C         -0.75629       -2.49130       -0.59543
C         -0.10040       -2.23996        0.75248
O         -2.93975       -1.86533        0.23460
O         -2.34711       -1.27390       -1.91149
H         -1.12885       -3.51701       -0.71435
H         -0.05885       -2.26327       -1.41389
H          0.95449       -2.53821        0.77922
H         -0.63867       -2.73896        1.57075
H          1.48381       -0.51407       -1.39630
H          1.50186        0.86369       -2.53038
O          2.96814        0.90103       -1.11826
C          3.66880        0.00528       -0.38511
O          3.26166       -1.11324       -0.11755
H          5.13339        1.43951       -0.29415
N          4.84776        0.51218       -0.00460
H          5.49513       -0.08199        0.49780
C         -0.78153        0.89807       -0.92492
C         -1.27184       -0.20451        0.06097
N         -2.23949        0.51543        0.86833
C         -2.53907        1.70410        0.32433
N         -1.75683        1.95370       -0.72157
H         -0.83402        0.52760       -1.95594
N         -3.47884        2.50830        0.77291
H         -2.91288       -0.00032        1.42846
H         -1.68546        2.86745       -1.15800
H         -3.65296        3.39704        0.31634
H         -4.03863        2.24455        1.57645
H         -3.21751       -2.75876       -0.00902
H         -3.11828       -0.68952       -1.87542
