40
STX_37_solv.log	Energy: -675523.6620506
C         -0.73030        0.55132        1.46472
N          0.35106        1.46086        1.80586
C          1.22412        1.86635        0.87205
C         -1.85587        1.29432        0.73546
H         -1.15188        0.17959        2.40750
N          1.83798        3.03407        0.98582
H          1.57715        3.67268        1.72992
H          2.62994        3.27328        0.39964
H          0.19905        2.08444        2.59399
N          1.46638        1.07006       -0.17219
C          0.69897       -0.38758       -1.81072
C          1.91378        0.34158       -2.37226
C          2.11291        1.51807       -1.41763
O          0.63250       -1.69536       -2.27105
O         -0.42066        0.36514       -2.14597
H          2.78155       -0.33108       -2.37211
H          1.72450        0.66732       -3.40154
H          1.60958        2.42859       -1.77242
H          3.17615        1.74248       -1.25205
H         -2.04039        2.24065        1.25877
H         -1.59302        1.51157       -0.30801
O         -3.07168        0.56390        0.81825
C         -3.48700       -0.19017       -0.21151
O         -2.83287       -0.38161       -1.23219
H         -5.10837       -1.31062       -0.68755
N         -4.69460       -0.71052        0.01506
H         -5.20130       -0.49982        0.86625
C         -0.17418       -0.65405        0.70390
C          0.98583       -0.30039       -0.26864
N          2.01246       -1.24826        0.13107
C          1.66549       -1.95007        1.21238
N          0.43827       -1.61864        1.59993
H         -0.98656       -1.14015        0.14684
N          2.43214       -2.84345        1.80421
H          2.92416       -1.31100       -0.31076
H         -0.06300       -2.07499        2.35454
H          2.09515       -3.34910        2.61623
H          3.36715       -3.02704        1.45748
H         -0.17550       -2.10458       -1.93080
H         -1.25091       -0.01400       -1.78300
