40
STX_3_solv.log	Energy: -675522.0171852
C          0.43981        0.18940       -1.71622
N         -0.46402        1.31344       -1.91780
C         -0.92391        1.97674       -0.84575
C          1.79586        0.69528       -1.22399
H          0.57916       -0.30058       -2.68774
N         -1.23229        3.26034       -0.91477
H         -1.01516        3.79258       -1.75101
H         -1.73567        3.72136       -0.16481
H         -0.38514        1.83187       -2.78821
N         -1.06170        1.30018        0.30104
C         -0.46084       -0.37701        1.80432
C         -1.14686        0.74197        2.59041
C         -1.13226        1.92940        1.63175
O         -0.68680       -1.66901        2.26970
O          0.90910       -0.18579        1.70782
H         -2.17828        0.44453        2.83072
H         -0.61890        0.95121        3.52926
H         -0.24708        2.56655        1.77092
H         -2.03505        2.54674        1.73309
H          2.21492        1.38909       -1.96789
H          1.69548        1.22240       -0.26576
O          2.64908       -0.42473       -1.07639
C          3.57239       -0.38732       -0.09203
O          3.78977        0.60172        0.58689
H          3.97183       -2.34080       -0.58628
N          4.20364       -1.56396        0.01985
H          4.95155       -1.65560        0.69522
C         -0.19202       -0.82595       -0.76472
C         -1.01400       -0.15079        0.36444
N         -2.32682       -0.74415        0.19487
C         -2.36417       -1.60303       -0.82960
N         -1.17785       -1.66395       -1.42399
H          0.59996       -1.44698       -0.32877
N         -3.43100       -2.28578       -1.19138
H         -3.12126       -0.54585        0.79519
H         -0.96536       -2.27054       -2.20862
H         -3.38855       -2.92205       -1.97995
H         -4.30464       -2.17735       -0.68815
H         -1.59794       -1.75594        2.57743
H          1.27721       -0.07308        2.59485
