40
STX_84_solv.log	Energy: -675522.2117947
C         -0.31769       -1.81921       -0.27512
N         -0.27010       -1.76361        1.18515
C         -0.38513       -0.57157        1.78713
C         -1.73260       -1.64571       -0.80169
H         -0.01316       -2.83165       -0.56643
N         -1.00763       -0.44243        2.94558
H         -1.53913       -1.21786        3.32821
H         -0.92412        0.40826        3.49210
H         -0.65838       -2.56323        1.67926
N          0.17355        0.48849        1.18419
C          1.15921        1.74434       -0.55540
C         -0.17173        2.36170       -0.15199
C         -0.36208        1.85500        1.26771
O          2.23747        2.37546        0.07206
O          1.30415        1.74315       -1.93615
H         -0.13998        3.45670       -0.22289
H         -0.96093        1.97535       -0.81095
H         -1.41241        1.82151        1.58159
H          0.20476        2.45228        1.99587
H         -1.73382       -1.76104       -1.89598
H         -2.38287       -2.41911       -0.36771
O         -2.20057       -0.35535       -0.43981
C         -3.48947       -0.07814       -0.72159
O         -4.23582       -0.88280       -1.25224
H         -4.76176        1.49272       -0.52909
N         -3.82243        1.16431       -0.34448
H         -3.13868        1.79459        0.05531
C          0.69828       -0.83870       -0.88857
C          1.10615        0.30374        0.08598
N          2.41552       -0.13500        0.53760
C          2.90273       -1.08527       -0.27566
N          1.97677       -1.48188       -1.14557
H          0.29244       -0.41613       -1.81465
N          4.12974       -1.55477       -0.21035
H          3.03425        0.53643        0.98500
H          2.06533       -2.32922       -1.69816
H          4.43717       -2.28226       -0.84686
H          4.77931       -1.19259        0.47924
H          2.20091        3.31888       -0.13644
H          2.19537        1.42984       -2.14794
