40
STX_17_solv.log	Energy: -675522.5246521
C          1.01219       -0.30230        1.08621
N          0.10441       -1.11556        1.87914
C         -0.94370       -1.70046        1.28101
C          1.85422       -1.20198        0.16985
H          1.68556        0.21327        1.78103
N         -1.45783       -2.82345        1.75400
H         -1.00073       -3.30747        2.52003
H         -2.34540       -3.18019        1.41707
H          0.47392       -1.56009        2.71480
N         -1.45379       -1.12168        0.18711
C         -1.26604        0.12612       -1.76318
C         -2.47900       -0.79027       -1.90932
C         -2.31358       -1.81397       -0.78763
O         -1.39105        1.40272       -2.28431
O         -0.17278       -0.55657       -2.30350
H         -3.39384       -0.19796       -1.77383
H         -2.50377       -1.25507       -2.90196
H         -1.80404       -2.72752       -1.12587
H         -3.27854       -2.09042       -0.34017
H          1.20782       -1.80867       -0.47685
H          2.47158       -1.86594        0.79050
O          2.66268       -0.44796       -0.71589
C          3.77689        0.12602       -0.20948
O          4.13035       -0.01535        0.94908
H          5.28132        1.30699       -0.89384
N          4.41017        0.85345       -1.13806
H          4.07177        0.89053       -2.09153
C          0.22806        0.76244        0.32370
C         -1.13337        0.24082       -0.21294
N         -2.07202        1.19825        0.34331
C         -1.46753        2.11930        1.09851
N         -0.16319        1.87279        1.17271
H          0.85207        1.13625       -0.49973
N         -2.08395        3.12222        1.68897
H         -3.05512        1.23175        0.09290
H          0.50365        2.48657        1.62810
H         -1.56028        3.79166        2.24244
H         -3.08654        3.23808        1.58952
H         -1.55745        1.32659       -3.23391
H          0.60919        0.01262       -2.27222
