40
STX_76_solv.log	Energy: -675522.1008008
C          0.92736        1.04844        0.00027
N          0.05225        2.18866       -0.16142
C         -1.23805        2.10119       -0.48089
C          2.09027        1.46198        0.89896
H          1.33011        0.75168       -0.98275
N         -1.93023        3.20684       -0.71837
H         -1.47139        4.11089       -0.67806
H         -2.90034        3.17362       -1.00750
H          0.48406        3.10754       -0.22094
N         -1.84915        0.90549       -0.54066
C         -2.32745       -0.98029        0.73584
C         -3.57892       -0.63220       -0.06874
C         -3.32472        0.80422       -0.50202
O         -2.07987       -2.33851        0.87344
O         -2.30532       -0.30612        1.96031
H         -3.65660       -1.30759       -0.93144
H         -4.49043       -0.73391        0.53456
H         -3.71539        1.51684        0.23863
H         -3.75674        1.03560       -1.48455
H          2.59005        2.34623        0.47900
H          1.72477        1.69571        1.90733
O          3.01043        0.39593        1.04884
C          3.95925        0.25037        0.09089
O          4.07331        1.01083       -0.85379
H          4.57880       -1.38536        1.16245
N          4.71758       -0.82674        0.32926
H          5.49133       -1.02826       -0.29150
C          0.14480       -0.13801        0.58302
C         -1.20599       -0.32307       -0.12553
N         -0.81559       -1.19173       -1.23101
C          0.26430       -1.90177       -0.85932
N          0.79511       -1.39651        0.25939
H         -0.00029       -0.01703        1.66209
N          0.73209       -2.94284       -1.51057
H         -1.51401       -1.60499       -1.84470
H          1.75344       -1.58973        0.53627
H          1.57244       -3.41151       -1.18791
H          0.25252       -3.29517       -2.33221
H         -2.88578       -2.77101        1.18598
H         -3.15420       -0.43793        2.40383
