40
STX_10_solv.log	Energy: -675523.2613294
C          1.04336        0.74221       -0.05768
N          0.98120        0.22914        1.30653
C          0.25953       -0.87985        1.53755
C          1.81157       -0.20192       -0.98716
H          1.57448        1.70028       -0.01581
N          0.60643       -1.73665        2.48267
H          1.48715       -1.61911        2.97294
H         -0.01770       -2.47803        2.78139
H          1.81457        0.35356        1.87543
N         -0.82173       -1.08639        0.77810
C         -2.10848       -0.89073       -1.15410
C         -2.63399       -2.07697       -0.35271
C         -1.52164       -2.37453        0.64833
O         -3.14614       -0.21868       -1.78138
O         -1.10209       -1.25909       -2.04741
H         -3.56097       -1.78313        0.15879
H         -2.85344       -2.93208       -1.00423
H         -0.81466       -3.13009        0.27696
H         -1.92466       -2.70814        1.61427
H          1.25940       -1.13751       -1.13985
H          1.95668        0.28493       -1.96142
O          3.05369       -0.57975       -0.41908
C          4.06577        0.31353       -0.48411
O          3.96548        1.39753       -1.03490
H          6.00376        0.40941        0.11834
N          5.16198       -0.15242        0.12819
H          5.17854       -1.08041        0.53267
C         -0.36701        1.00256       -0.58187
C         -1.39382       -0.04178       -0.05672
N         -2.33026        0.78174        0.68243
C         -2.03969        2.08348        0.58580
N         -0.91806        2.25810       -0.10461
H         -0.35222        0.99189       -1.67966
N         -2.76808        3.04810        1.10846
H         -3.22028        0.43383        1.02648
H         -0.47380        3.15823       -0.25000
H         -2.48703        4.01698        1.00397
H         -3.60620        2.82865        1.63540
H         -2.76787        0.48899       -2.32332
H         -1.43729       -1.96569       -2.61654
