40
STX_8_solv.log	Energy: -675523.0445562
C         -1.08364       -0.27463       -0.93008
N         -0.26387       -1.12410       -1.78267
C          0.78725       -1.76529       -1.24724
C         -1.90753       -1.13743        0.03388
H         -1.77595        0.27033       -1.58307
N          1.19419       -2.92824       -1.72647
H          0.64980       -3.40040       -2.44111
H          2.07535       -3.33956       -1.43935
H         -0.72246       -1.57145       -2.57175
N          1.41077       -1.18887       -0.21412
C          1.56811        0.18995        1.65546
C          2.72652       -0.80009        1.69918
C          2.33094       -1.88345        0.70084
O          1.96121        1.42908        2.13756
O          0.43254       -0.29552        2.30400
H          3.64753       -0.28919        1.38653
H          2.87500       -1.19428        2.71246
H          1.79847       -2.71879        1.17770
H          3.20420       -2.27885        0.16373
H         -2.50371       -1.85518       -0.54607
H         -1.25162       -1.68453        0.72313
O         -2.74313       -0.34224        0.85557
C         -3.88496        0.13184        0.30706
O         -4.23028       -0.11800       -0.83576
H         -4.22094        1.03004        2.12246
N         -4.55766        0.89549        1.17726
H         -5.44529        1.29200        0.89582
C         -0.21631        0.74940       -0.19746
C          1.19988        0.20479        0.13861
N          2.06801        1.08881       -0.61762
C          1.38212        2.08655       -1.18956
N          0.07789        1.91952       -1.00472
H         -0.73184        1.04879        0.72343
N          1.93238        3.08535       -1.84806
H          3.06985        1.13812       -0.45585
H         -0.63518        2.51906       -1.40586
H          1.35220        3.80959       -2.25719
H          2.93935        3.13617       -1.95683
H          1.18748        2.01028        2.14878
H          0.67890       -0.55417        3.20268
