40
STX_7_solv.log	Energy: -675523.0911551
C         -0.44728       -0.17993       -1.71655
N          0.45647       -1.30115       -1.93199
C          0.91068       -1.97686       -0.86470
C         -1.80145       -0.69039       -1.22342
H         -0.59108        0.31935       -2.68266
N          1.21191       -3.26158       -0.94412
H          0.99460       -3.78536       -1.78561
H          1.70917       -3.73228       -0.19604
H          0.37207       -1.81312       -2.80571
N          1.04880       -1.31052        0.28737
C          0.50011        0.36240        1.81473
C          1.17505       -0.77302        2.57673
C          1.13200       -1.95192        1.60962
O          0.85525        1.59326        2.34547
O         -0.88171        0.20210        1.73572
H          2.21054       -0.48568        2.80581
H          0.65523       -0.98321        3.52000
H          0.24261       -2.58159        1.75632
H          2.02995       -2.57900        1.69300
H         -2.22142       -1.38080       -1.96993
H         -1.69901       -1.22293       -0.26836
O         -2.65657        0.42710       -1.06800
C         -3.56995        0.38809       -0.07423
O         -3.77251       -0.59837        0.61277
H         -3.99805        2.33114       -0.58443
N         -4.20769        1.56123        0.03845
H         -4.95664        1.64755        0.71341
C          0.18599        0.82661       -0.75688
C          1.02130        0.14248        0.35992
N          2.33839        0.71657        0.16537
C          2.35412        1.61278       -0.82748
N          1.16181        1.68105       -1.40908
H         -0.60941        1.43648       -0.31052
N          3.40968        2.31931       -1.17621
H          3.09264        0.61727        0.83784
H          0.94731        2.27863       -2.20007
H          3.35044        2.98684       -1.93732
H          4.29123        2.19819       -0.68996
H          0.36169        2.28052        1.87477
H         -1.23643        0.07948        2.62689
