40
STX_69_solv.log	Energy: -675522.1375289
C         -1.04124        0.12297       -0.22966
N         -0.94383       -1.31575       -0.35717
C          0.19774       -1.96115       -0.58770
C         -2.30495        0.48685        0.52232
H         -1.08643        0.57782       -1.23359
N          0.17596       -3.26612       -0.82414
H         -0.71161       -3.75616       -0.86161
H          1.01823       -3.78356       -1.04533
H         -1.81245       -1.82718       -0.49253
N          1.37075       -1.30291       -0.55463
C          2.69001       -0.03474        0.88356
C          3.61150       -0.99784        0.13782
C          2.64903       -2.03650       -0.42024
O          3.22328        1.22528        1.11320
O          2.17539       -0.61686        2.04613
H          4.13549       -0.45772       -0.66236
H          4.36045       -1.43910        0.80862
H          2.51382       -2.86675        0.28724
H          2.96989       -2.44029       -1.38929
H         -2.29948        0.03731        1.52681
H         -2.37644        1.57980        0.62422
O         -3.39399       -0.01212       -0.23716
C         -4.62360        0.14292        0.29911
O         -4.81203        0.70443        1.36465
H         -5.33107       -0.84081       -1.36058
N         -5.56900       -0.38930       -0.48641
H         -6.53646       -0.33014       -0.19549
C          0.19733        0.66196        0.49599
C          1.48401        0.06813       -0.09879
N          1.75603        1.02700       -1.16481
C          1.21792        2.21209       -0.82865
N          0.38792        2.07229        0.21076
H          0.13911        0.46316        1.57181
N          1.46948        3.34583       -1.44191
H          2.61946        0.98776       -1.70160
H         -0.30556        2.77633        0.44707
H          0.99744        4.19762       -1.15666
H          2.13995        3.38231       -2.20245
H          4.11930        1.12533        1.46152
H          2.90738       -0.97707        2.56511
