40
STX_44_solv.log	Energy: -675523.8708544
C         -0.73302       -0.54762       -1.46397
N          0.34540       -1.46034       -1.80752
C          1.21138       -1.87674       -0.87165
C         -1.85977       -1.28732       -0.73291
H         -1.15431       -0.17350       -2.40584
N          1.81788       -3.04785       -0.98690
H          1.55665       -3.68153       -1.73508
H          2.60552       -3.29440       -0.39792
H          0.19111       -2.08015       -2.59821
N          1.45382       -1.08509        0.17602
C          0.71187        0.39611        1.79195
C          1.92068       -0.34347        2.36621
C          2.10130       -1.53231        1.42178
O          0.59391        1.73871        2.12219
O         -0.40982       -0.34221        2.15299
H          2.79754        0.31710        2.35455
H          1.73125       -0.65694        3.39956
H          1.58875       -2.43399        1.78568
H          3.16088       -1.77065        1.25152
H         -1.59731       -1.50231        0.31130
H         -2.04713       -2.23423       -1.25433
O         -3.07247       -0.55231       -0.81621
C         -3.49097        0.19349        0.21898
O         -2.84335        0.37066        1.24565
H         -5.19479        0.52426       -0.86976
N         -4.69520        0.72100       -0.01111
H         -5.10983        1.31902        0.69271
C         -0.17414        0.65431       -0.69964
C          0.99400        0.29238        0.26055
N          2.03032        1.22035       -0.15862
C          1.66562        1.94805       -1.21646
N          0.43133        1.62750       -1.59118
H         -0.98187        1.13425       -0.13137
N          2.42556        2.85168       -1.80137
H          2.93884        1.29146        0.28828
H         -0.08052        2.10239       -2.32699
H          2.07819        3.37382       -2.59840
H          3.36643        3.02543       -1.46559
H          0.49624        1.80178        3.08214
H         -1.23725        0.04748        1.79669
