40
STX_47_solv.log	Energy: -675522.5256749
C         -1.01216       -0.30167       -1.08634
N         -0.10443       -1.11466       -1.87959
C          0.94353       -1.69997       -1.28161
C         -1.85434       -1.20172       -0.17049
H         -1.68544        0.21427       -1.78098
N          1.45746       -2.82289       -1.75499
H          1.00011       -3.30671       -2.52100
H          2.34495       -3.17992       -1.41818
H         -0.47397       -1.55888       -2.71540
N          1.45375       -1.12166       -0.18752
C          1.26612        0.12540        1.76325
C          2.47894       -0.79119        1.90904
C          2.31324       -1.81453        0.78707
O          1.39121        1.40173        2.28500
O          0.17278       -0.55749        2.30320
H          3.39389       -0.19901        1.77364
H          2.50374       -1.25627        2.90154
H          1.80334       -2.72798        1.12506
H          3.27811       -2.09124        0.33960
H         -1.20803       -1.80885        0.47590
H         -2.47172       -1.86530       -0.79153
O         -2.66278       -0.44815        0.71564
C         -3.77698        0.12612        0.20953
O         -4.13037       -0.01451       -0.94913
H         -5.28148        1.30662        0.89460
N         -4.41033        0.85294        1.13856
H         -4.07201        0.88933        2.09208
C         -0.22791        0.76268       -0.32342
C          1.13348        0.24074        0.21307
N          2.07221        1.19830       -0.34282
C          1.46780        2.11963       -1.09777
N          0.16345        1.87328       -1.17202
H         -0.85186        1.13632        0.50014
N          2.08432        3.12264       -1.68795
H          3.05525        1.23181       -0.09215
H         -0.50329        2.48705       -1.62758
H          1.56070        3.79235       -2.24115
H          3.08693        3.23833       -1.58851
H          1.55789        1.32514        3.23450
H         -0.60919        0.01173        2.27213
