40
STX_74_solv.log	Energy: -675521.4471995
C          0.80036        1.07721       -0.79668
N         -0.13984        2.17774       -0.75705
C         -1.45504        2.04523       -0.59375
C          2.15396        1.60198       -0.33259
H          0.89419        0.70758       -1.83169
N         -2.23336        3.11785       -0.64499
H         -1.82771        4.03240       -0.81222
H         -3.23991        3.04814       -0.55718
H          0.20830        3.10067       -1.00540
N         -1.99693        0.83848       -0.35662
C         -1.94237       -0.97275        1.11548
C         -3.39890       -0.70311        0.75811
C         -3.36586        0.70715        0.18840
O         -1.71904       -2.33515        1.26858
O         -1.52340       -0.23932        2.22358
H         -3.73532       -1.43546        0.01184
H         -4.04739       -0.78411        1.63969
H         -3.51105        1.45545        0.98072
H         -4.11501        0.86698       -0.59807
H          2.47818        2.42925       -0.98194
H          2.08750        1.96305        0.70219
O          3.09935        0.55237       -0.42934
C          3.89763        0.29879        0.63629
O          3.84911        0.92505        1.67922
H          5.37929       -1.01884        1.08552
N          4.71870       -0.72716        0.37639
H          4.70822       -1.18548       -0.52656
C          0.30238       -0.07784        0.08706
C         -1.19795       -0.34039       -0.11211
N         -1.16554       -1.27936       -1.22987
C          0.00300       -1.94254       -1.19604
N          0.85633       -1.34903       -0.35215
H          0.52471        0.11894        1.14214
N          0.26894       -3.02216       -1.89465
H         -2.01207       -1.75125       -1.54081
H          1.85966       -1.49560       -0.42029
H          1.18786       -3.45016       -1.84677
H         -0.43911       -3.43388       -2.49339
H         -0.84159       -2.45757        1.65727
H         -2.14826       -0.39039        2.94611
