40
STX_38_solv.log	Energy: -675524.0659471
C         -0.90613       -0.71298       -1.20008
N         -0.27747       -2.00013       -0.97644
C          1.01917       -2.11744       -0.68702
C         -2.42119       -0.83203       -1.25042
H         -0.60393       -0.32662       -2.18875
N          1.58369       -3.31718       -0.67615
H          1.03938       -4.13382       -0.93328
H          2.57365       -3.43814       -0.49957
H         -0.76602       -2.83539       -1.28915
N          1.74967       -1.02547       -0.38704
C          1.81527        0.64132        1.24724
C          3.24532        0.17128        1.00960
C          3.06014       -1.15798        0.29146
O          1.78534        1.99921        1.53774
O          1.15835       -0.12111        2.21168
H          3.77771        0.90421        0.38810
H          3.79003        0.06159        1.95596
H          3.00776       -1.98197        1.01692
H          3.85502       -1.36959       -0.43502
H         -2.83826        0.09161       -1.67057
H         -2.69799       -1.66545       -1.90963
O         -3.00351       -1.10455        0.01367
C         -3.47646       -0.05551        0.72280
O         -3.40054        1.10296        0.33905
H         -4.41063        0.24139        2.50004
N         -4.01989       -0.45393        1.87689
H         -4.06419       -1.43574        2.12089
C         -0.39431        0.25376       -0.12517
C          1.13860        0.26073       -0.11385
N          1.40472        1.28429       -1.12230
C          0.36639        2.14407       -1.13883
N         -0.67411        1.62959       -0.47990
H         -0.78499       -0.00960        0.86433
N          0.38196        3.31871       -1.72661
H          2.34868        1.62831       -1.28205
H         -1.63173        1.97506       -0.52160
H         -0.44949        3.90035       -1.73000
H          1.22583        3.65955       -2.17505
H          0.90025        2.22251        1.85870
H          1.69105       -0.12285        3.01913
