40
STX_79_solv.log	Energy: -675521.5933527
C          0.85260        0.95061       -0.63500
N          0.00713        2.12357       -0.65657
C         -1.32445        2.08657       -0.62239
C          2.21622        1.34996       -0.09291
H          0.97821        0.56432       -1.66058
N         -2.01363        3.21174       -0.75921
H         -1.52870        4.08851       -0.91701
H         -3.02559        3.21089       -0.80168
H          0.44163        3.01051       -0.89930
N         -1.97359        0.92554       -0.42421
C         -2.16725       -0.84588        1.07563
C         -3.57162       -0.48087        0.59901
C         -3.38782        0.91032        0.01136
O         -1.94202       -2.20402        1.24834
O         -1.79968       -0.09711        2.19753
H         -3.90062       -1.20199       -0.16137
H         -4.29461       -0.49443        1.42525
H         -3.53796        1.68543        0.77623
H         -4.05865        1.10668       -0.83523
H          2.64577        2.16273       -0.69930
H          2.12836        1.69217        0.94896
O          3.03342        0.19475       -0.17066
C          4.22113        0.23890        0.47004
O          4.61545        1.22788        1.06207
H          5.78791       -1.01664        0.78257
N          4.87242       -0.92647        0.36074
H          4.47887       -1.69801       -0.16379
C          0.20584       -0.14824        0.22129
C         -1.28852       -0.30744       -0.09554
N         -1.23272       -1.26892       -1.19186
C         -0.11443       -2.00473       -1.05929
N          0.70923       -1.45657       -0.15919
H          0.35429        0.05579        1.28735
N          0.13372       -3.10812       -1.72739
H         -2.08123       -1.69141       -1.56261
H          1.70871       -1.64460       -0.16081
H          1.01688       -3.59222       -1.60429
H         -0.54921       -3.48044       -2.37854
H         -2.67844       -2.58325        1.74636
H         -2.51094       -0.14675        2.85029
