40
STX_13_solv.log	Energy: -675524.0902192
C         -0.63657       -1.37261       -0.61833
N         -0.92771       -1.25355        0.80473
C         -0.68919       -0.09363        1.43281
C         -1.60504       -0.55859       -1.48010
H         -0.75072       -2.43268       -0.87576
N         -1.37750        0.25420        2.50638
H         -2.22416       -0.25036        2.74822
H         -1.12238        1.06679        3.05567
H         -1.66453       -1.84290        1.18156
N          0.28030        0.69175        0.94870
C          1.65082        1.53084       -0.74075
C          1.58171        2.56749        0.37539
C          0.38602        2.13515        1.21753
O          2.91412        1.50340       -1.31093
O          0.64949        1.71044       -1.69494
H          2.51182        2.52851        0.95887
H          1.46784        3.58098       -0.02962
H         -0.54815        2.62218        0.90275
H          0.55055        2.33367        2.28524
H         -1.43740        0.51822       -1.35907
H         -1.45685       -0.82435       -2.53454
O         -2.94040       -0.89031       -1.14320
C         -3.62646       -0.02724       -0.35979
O         -3.19467        1.05979       -0.01196
H         -5.46558        0.05362        0.49652
N         -4.82231       -0.52860       -0.02488
H         -5.13754       -1.41412       -0.40163
C          0.81062       -0.96686       -0.89282
C          1.28154        0.21129        0.00836
N          2.43267       -0.35358        0.68694
C          2.68222       -1.60756        0.29509
N          1.75623       -2.01794       -0.56449
H          0.91130       -0.68780       -1.95075
N          3.70126       -2.32999        0.71193
H          3.09530        0.20692        1.21433
H          1.74058       -2.94062       -0.98559
H          3.82866       -3.27744        0.37355
H          4.35637       -1.95257        1.38763
H          2.89658        0.88511       -2.05585
H          0.70535        2.61487       -2.03298
