40
STX_0_solv.log	Energy: -675523.8733205
C         -0.73300        0.54685        1.46424
N          0.34534        1.45951        1.80820
C          1.21149        1.87627        0.87267
C         -1.85988        1.28675        0.73360
H         -1.15423        0.17227        2.40595
N          1.81789        3.04739        0.98850
H          1.55648        3.68074        1.73689
H          2.60573        3.29414        0.39988
H          0.19090        2.07905        2.59908
N          1.45427        1.08502       -0.17522
C          0.71194       -0.39496       -1.79211
C          1.92096        0.34464       -2.36589
C          2.10188        1.53285       -1.42072
O          0.59356       -1.73728       -2.12327
O         -0.40953        0.34395       -2.15265
H          2.79766       -0.31616       -2.35463
H          1.73161        0.65880       -3.39906
H          1.58958        2.43488       -1.78408
H          3.16152        1.77078       -1.25029
H         -2.04737        2.23337        1.25551
H         -1.59755        1.50231       -0.31052
O         -3.07239        0.55139        0.81667
C         -3.49126       -0.19329       -0.21918
O         -2.84390       -0.36954       -1.24617
H         -5.19494       -0.52477        0.86956
N         -4.69550       -0.72088        0.01068
H         -5.11040       -1.31811       -0.69364
C         -0.17407       -0.65468        0.69931
C          0.99413       -0.29229       -0.26064
N          2.03026       -1.22075        0.15787
C          1.66554       -1.94893        1.21538
N          0.43132       -1.62838        1.59035
H         -0.98176       -1.13426        0.13070
N          2.42538       -2.85300        1.79976
H          2.93894       -1.29135       -0.28879
H         -0.08066       -2.10382        2.32572
H          2.07801       -3.37541        2.59660
H          3.36623       -3.02667        1.46387
H          0.49632       -1.79969       -3.08331
H         -1.23705       -0.04595       -1.79684
