40
STX_68_solv.log	Energy: -675522.8693681
C         -0.92032        0.83786       -0.89894
N         -1.27631       -0.53483       -1.18806
C         -0.41950       -1.54990       -1.13020
C         -2.15894        1.64561       -0.54317
H         -0.49539        1.30766       -1.80209
N         -0.82961       -2.76760       -1.46165
H         -1.77796       -2.90498       -1.79364
H         -0.20447       -3.56362       -1.45641
H         -2.26742       -0.73712       -1.34253
N          0.85223       -1.34837       -0.73520
C          2.04878       -0.68476        1.15325
C          2.77297       -1.87892        0.54175
C          1.72878       -2.48816       -0.38312
O          2.85623        0.30978        1.67818
O          1.14384       -1.18469        2.09420
H          3.65378       -1.52791       -0.01196
H          3.10295       -2.58015        1.31747
H          1.14048       -3.24921        0.14871
H          2.16267       -2.93741       -1.28585
H         -1.86630        2.68600       -0.35594
H         -2.86892        1.63095       -1.38112
O         -2.78961        1.19244        0.64690
C         -3.75318        0.25363        0.53431
O         -4.03087       -0.29676       -0.52377
H         -4.08298        0.53177        2.53768
N         -4.33923        0.00945        1.70878
H         -5.07360       -0.68574        1.75498
C          0.14717        0.87596        0.20451
C          1.27754       -0.12160       -0.09166
N          2.15182        0.70901       -0.91769
C          1.97319        1.99619       -0.57276
N          0.87365        2.13214        0.17647
H         -0.31398        0.68614        1.18030
N          2.76885        2.97950       -0.92746
H          3.07190        0.38112       -1.20273
H          0.42075        3.03090        0.31408
H          2.55306        3.93521       -0.66296
H          3.60513        2.79304       -1.47073
H          3.46786       -0.09203        2.30994
H          0.74681       -0.44128        2.56856
