40
STX_11_solv.log	Energy: -675522.3155722
C          1.04090        0.75052       -0.07480
N          0.98492        0.24708        1.29348
C          0.27350       -0.86674        1.53281
C          1.81004       -0.19753       -0.99984
H          1.56780        1.71113       -0.04105
N          0.62885       -1.71558        2.48178
H          1.51003       -1.58939        2.96903
H          0.01137       -2.46091        2.78455
H          1.81834        0.38289        1.85970
N         -0.80829       -1.08489        0.77725
C         -2.11254       -0.88799       -1.13439
C         -2.62872       -2.08074       -0.33008
C         -1.50190       -2.37714        0.65561
O         -3.09039       -0.10827       -1.73553
O         -1.11745       -1.27574       -2.03665
H         -3.54739       -1.78683        0.19607
H         -2.85832       -2.93712       -0.97734
H         -0.79607       -3.12872        0.27427
H         -1.89127       -2.71347        1.62617
H          1.25530       -1.13150       -1.15322
H          1.95976        0.28760       -1.97429
O          3.04892       -0.57942       -0.42743
C          4.06398        0.31077       -0.48701
O          3.96921        1.39597       -1.03637
H          5.16827       -1.08842        0.53185
N          5.15626       -0.15968        0.12893
H          5.99995        0.39934        0.12327
C         -0.37233        0.99909       -0.59784
C         -1.39274       -0.04147       -0.05115
N         -2.31423        0.78570        0.70243
C         -2.03737        2.08828        0.57248
N         -0.92641        2.25865       -0.13553
H         -0.36294        0.97123       -1.69470
N         -2.76810        3.05639        1.08488
H         -3.20676        0.44151        1.04393
H         -0.48994        3.15901       -0.30169
H         -2.49771        4.02562        0.95768
H         -3.59765        2.83978        1.62639
H         -3.63664       -0.67763       -2.29439
H         -1.41636       -2.06027       -2.51581
