40
STX_42_solv.log	Energy: -675522.4929879
C          1.05003        0.73328       -0.03155
N          0.96698        0.22947        1.33330
C          0.20961       -0.85175        1.57700
C          1.81312       -0.22476       -0.94960
H          1.59410        1.68426        0.00894
N          0.51476       -1.69094        2.55232
H          1.38810       -1.58181        3.05756
H         -0.13458       -2.40709        2.85880
H          1.79382        0.34465        1.91340
N         -0.86238       -1.05440        0.80357
C         -2.04126       -0.92043       -1.19204
C         -2.63932       -2.06212       -0.37297
C         -1.60523       -2.32293        0.72138
O         -2.93166       -0.13976       -1.90857
O         -1.05653       -1.48048       -2.01185
H         -3.59583       -1.73232        0.05398
H         -2.81914       -2.94369       -0.99931
H         -0.90742       -3.12958        0.45595
H         -2.08002       -2.56627        1.68233
H          1.26198       -1.16408       -1.08221
H          1.95045        0.24550       -1.93322
O          3.05959       -0.59025       -0.38380
C          4.07066        0.30186       -0.47785
O          3.96237        1.37647       -1.04523
H          5.19887       -1.07716        0.54176
N          5.17508       -0.15366        0.12741
H          6.01755        0.40618        0.09307
C         -0.35159        1.01450       -0.56685
C         -1.39584       -0.03203       -0.08292
N         -2.37635        0.79820        0.59181
C         -2.05964        2.09498        0.54648
N         -0.89507        2.26448       -0.07122
H         -0.31705        1.04197       -1.66490
N         -2.79954        3.06178        1.04853
H         -3.26591        0.44810        0.93388
H         -0.45489        3.16588       -0.22061
H         -2.49634        4.02716        0.97962
H         -3.67099        2.84805        1.52080
H         -3.40160       -0.70817       -2.53430
H         -0.69884       -0.79750       -2.59641
