40
STX_14_solv.log	Energy: -675523.0347796
C          0.64398        1.37221       -0.61189
N          0.93408        1.23933        0.81087
C          0.69611        0.07347        1.42854
C          1.61279        0.56464       -1.47913
H          0.76011        2.43452       -0.85897
N          1.38595       -0.28603        2.49714
H          2.23383        0.21486        2.74231
H          1.12959       -1.10265        3.03988
H          1.67105        1.82523        1.19280
N         -0.27705       -0.70399        0.93839
C         -1.66514       -1.51055       -0.75428
C         -1.60309       -2.56086        0.35551
C         -0.39083       -2.15147        1.18637
O         -2.88581       -1.39997       -1.41334
O         -0.67131       -1.69707       -1.70629
H         -2.52154       -2.51370        0.95895
H         -1.51090       -3.57310       -0.05782
H          0.53374       -2.64178        0.84940
H         -0.54060       -2.36465        2.25335
H          1.44394       -0.51318       -1.36747
H          1.46633        0.83928       -2.53152
O          2.94799        0.89223       -1.13746
C          3.63180        0.02320       -0.35865
O          3.20070       -1.06822       -0.02400
H          5.13837        1.41563       -0.37576
N          4.82461        0.52404       -0.01238
H          5.46610       -0.06109        0.50794
C         -0.80297        0.96911       -0.89306
C         -1.27601       -0.20600        0.00831
N         -2.41836        0.36672        0.69671
C         -2.66891        1.61899        0.29940
N         -1.74935        2.02133       -0.57043
H         -0.90096        0.68602       -1.94949
N         -3.68231        2.34651        0.72102
H         -3.05198       -0.17389        1.27823
H         -1.74157        2.93773       -1.00527
H         -3.80795        3.29355        0.38081
H         -4.33656        1.97258        1.39945
H         -3.61022       -1.60664       -0.80939
H         -0.74272       -2.59633       -2.05487
