52
M6_1_solv.log	Energy: -904667.7091621
C          3.63380       -0.91919       -1.09570
N          3.91942       -1.38658        0.25397
C          3.03440       -1.22836        1.23771
C          2.67565       -1.81232       -1.88805
H          4.58737       -0.93793       -1.63684
N          3.06891       -1.97807        2.32389
H          3.69260       -2.77768        2.37191
H          2.51942       -1.74075        3.14281
H          4.65869       -2.07153        0.38178
N          2.09059       -0.28149        1.09147
C          0.68909        1.00059       -0.24156
C         -0.18467        0.35431        0.82243
C          0.81883       -0.25610        1.81781
O          0.34415        1.61197       -1.21511
H          0.54584       -1.27778        2.10763
H          0.90624        0.35533        2.72723
H          2.89534       -1.69997       -2.95627
H          2.79443       -2.86423       -1.60009
O          1.31632       -1.39823       -1.74483
C          0.47465       -2.03921       -0.92450
O          0.80180       -2.96700       -0.22243
C          3.15247        0.53367       -1.04861
C          2.18319        0.79828        0.13416
N          2.71873        2.02249        0.70395
C          3.92208        2.31956        0.19054
N          4.23255        1.46551       -0.77979
H          2.65235        0.79271       -1.99313
N          4.67672        3.31824        0.59215
H          2.34045        2.45611        1.54177
H          5.03128        1.57997       -1.39560
H          5.56799        3.49856        0.14241
H          4.37192        3.92016        1.34971
H         -0.71037        1.18989        1.30871
C         -0.89282       -1.41125       -0.97409
C         -1.26397       -0.65430        0.32050
H         -1.62320       -2.22037       -1.11529
H         -1.34522       -1.40775        1.11617
H         -0.94921       -0.73833       -1.83862
C         -3.75771       -0.80310        0.58205
C         -2.64603       -0.04546        0.15544
C         -2.83928        1.19867       -0.44876
C         -4.12254        1.74046       -0.64217
H         -3.63302       -1.77657        1.05998
H         -1.97362        1.76848       -0.79153
H         -4.26586        2.71739       -1.10532
C         -5.19135        0.97963       -0.22024
C         -5.00963       -0.26543        0.37694
O         -6.22765       -0.77551        0.72710
C         -7.19174        0.06470        0.10396
O         -6.52666        1.26969       -0.25321
H         -7.57877       -0.42853       -0.80537
H         -8.00332        0.28388        0.80938
