52
M6_3_solv.log	Energy: -904671.0897564
C         -3.45862        1.23431        0.73851
N         -3.10059        0.49518        1.93931
C         -2.11518       -0.40412        1.98145
C         -2.58158        2.45477        0.50484
H         -4.48401        1.60109        0.87270
N         -1.58652       -0.75154        3.14511
H         -1.86253       -0.26498        3.99169
H         -1.01917       -1.58639        3.23587
H         -3.46640        0.83108        2.82577
N         -1.68186       -0.97729        0.84217
C         -1.03183       -0.26027       -1.27957
C          0.21923       -0.61374       -0.50510
C         -0.31923       -1.49747        0.62749
O         -1.11142        0.24460       -2.36699
H          0.28463       -1.42458        1.53843
H         -0.37622       -2.55492        0.33642
H         -2.94073        3.01519       -0.36836
H         -2.58923        3.11200        1.38500
O         -1.25490        1.98877        0.28410
C         -0.44676        2.61292       -0.58107
O         -0.75435        3.62763       -1.15768
C         -3.44617        0.29802       -0.46229
C         -2.27252       -0.69931       -0.45648
N         -2.89173       -1.87531       -1.03937
C         -4.23050       -1.79776       -0.95281
N         -4.59455       -0.59318       -0.51227
H         -3.38691        0.89129       -1.38810
N         -5.05208       -2.77297       -1.26738
H         -2.39942       -2.75871       -1.14466
H         -5.54502       -0.24441       -0.59607
H         -6.05597       -2.63578       -1.20944
H         -4.68959       -3.67145       -1.56947
H          0.86343       -1.17138       -1.19949
C          0.87594        1.90462       -0.73025
C          1.01629        0.60428        0.06722
H          1.63857        2.62302       -0.39121
H          0.60820        0.80263        1.06685
H          1.04747        1.76229       -1.80810
C          3.30495        0.04516       -0.87192
C          2.46889        0.21300        0.25486
C          2.97461        0.00658        1.53835
C          4.31364       -0.36761        1.76190
H          2.93462        0.18965       -1.88878
H          2.31364        0.14342        2.39758
H          4.70253       -0.53104        2.76756
C          5.10960       -0.51712        0.64845
C          4.61280       -0.31448       -0.63933
O          5.60470       -0.56130       -1.54421
C          6.80199       -0.69003       -0.78693
O          6.41993       -0.89428        0.56763
H          7.37519       -1.55497       -1.14489
H          7.39316        0.23897       -0.86920
