52
M6_5_solv.log	Energy: -904669.4714911
C          2.91184       -0.63412       -1.56110
N          3.66397       -1.10241       -0.40731
C          3.20550       -0.95351        0.83821
C          1.74798       -1.55538       -1.89954
H          3.58908       -0.62594       -2.42398
N          3.65415       -1.73082        1.81101
H          4.25979       -2.51573        1.59442
H          3.49297       -1.49812        2.78485
H          4.40991       -1.77541       -0.55813
N          2.29561        0.00265        1.10271
C          0.31956        0.86877        0.19454
C         -0.05719        0.17506        1.48572
C          1.29021       -0.10073        2.17406
O         -0.40574        1.35052       -0.63254
H          1.33439       -1.08876        2.64442
H          1.49769        0.64933        2.94853
H          1.23774       -1.21273       -2.81011
H          2.09627       -2.58571       -2.04257
O          0.84121       -1.49220       -0.80062
C          0.21486       -2.58896       -0.37099
O          0.24291       -3.63713       -0.97085
C          2.43900        0.78855       -1.30256
C          1.86426        0.97422        0.11379
N          2.31074        2.31870        0.43288
C          3.32993        2.68029       -0.36524
N          3.50902        1.77195       -1.32483
H          1.65911        1.05802       -2.03107
N          4.03809        3.77696       -0.21402
H          2.15205        2.74310        1.34301
H          4.05939        1.95604       -2.15851
H          4.77204        4.00924       -0.87543
H          3.85244        4.40427        0.56168
H         -0.59772        0.94427        2.05803
C         -0.43972       -2.39075        0.96837
C         -1.03574       -1.03636        1.37707
H          0.34420       -2.67445        1.69054
H         -1.34545       -1.20112        2.42059
H         -1.21540       -3.16255        1.05925
C         -3.13345        0.33587        1.19869
C         -2.29865       -0.64817        0.61940
C         -2.64761       -1.20657       -0.61001
C         -3.80618       -0.81663       -1.31012
H         -2.89698        0.78885        2.16359
H         -2.03264       -1.98287       -1.06615
H         -4.06532       -1.26106       -2.27161
C         -4.59285        0.14953       -0.72691
C         -4.26093        0.70950        0.50597
O         -5.19639        1.64675        0.83752
C         -6.24878        1.50380       -0.10930
O         -5.74014        0.72930       -1.18833
H         -7.09748        0.97501        0.35865
H         -6.55437        2.49279       -0.47484
