37
STX_ketone_1_solv.log	Energy: -627544.9373161
C          0.10694       -1.64760       -0.99852
N         -0.02212       -2.02813        0.40190
C         -0.28560       -1.12104        1.34479
C         -1.21836       -1.39909       -1.71055
H          0.56523       -2.50051       -1.51491
N         -0.81651       -1.47128        2.50246
H         -1.19155       -2.40606        2.62660
H         -0.87267       -0.81832        3.27607
H         -0.22692       -3.00050        0.61282
N          0.01782        0.16476        1.09376
C          0.27426        1.92393       -0.39209
C         -0.48192        2.46437        0.78953
C         -0.58896        1.31195        1.79079
O          0.41912        2.42063       -1.47573
H          0.08606        3.31825        1.18879
H         -1.45875        2.84035        0.45908
H         -1.63320        1.07188        2.02947
H         -0.05256        1.52487        2.72623
H         -1.02779       -1.38053       -2.79110
H         -1.92269       -2.20948       -1.48392
O         -1.79454       -0.13584       -1.39727
C         -2.80363       -0.09080       -0.49825
O         -3.12485       -1.04045        0.19530
H         -4.10314        1.30643        0.20028
N         -3.38002        1.11775       -0.48248
H         -3.04543        1.86034       -1.08428
C          1.06693       -0.46520       -1.12150
C          0.89661        0.56740        0.01753
N          2.26799        0.77930        0.45483
C          3.10515       -0.10959       -0.09913
N          2.45537       -0.86684       -0.97672
H          0.91443        0.03931       -2.08716
N          4.38547       -0.20270        0.18703
H          2.51265        1.36293        1.25002
H          2.90783       -1.53278       -1.59452
H          4.96539       -0.89474       -0.27555
H          4.80069        0.40785        0.88244
