37
STX_ketone_5_solv.log	Energy: -627542.7598206
C         -0.48083       -1.28095       -0.34116
N         -0.43423       -1.19355        1.11261
C         -0.07501       -0.04452        1.69388
C         -1.62177       -0.46354       -0.93371
H         -0.63700       -2.33628       -0.59763
N         -0.46977        0.25815        2.91771
H         -1.15479       -0.32387        3.38927
H         -0.05325        1.02860        3.42967
H         -1.02070       -1.82828        1.64707
N          0.69740        0.80354        0.99326
C          1.36935        1.71604       -1.04331
C          0.88846        2.83900       -0.16941
C          0.79200        2.25065        1.23554
O          1.67400        1.74906       -2.20426
H          1.56131        3.70275       -0.24820
H         -0.10068        3.14338       -0.54729
H         -0.09989        2.59525        1.77153
H          1.68102        2.48110        1.84015
H         -1.50483        0.60974       -0.71778
H         -1.63812       -0.59429       -2.02621
O         -2.82153       -0.95013       -0.36007
C         -3.91942       -0.17866       -0.50173
O         -3.90778        0.89326       -1.08327
H         -5.88291       -0.27466        0.01272
N         -4.98841       -0.74377        0.07563
H         -4.92495       -1.65277        0.51660
C          0.85982       -0.84279       -0.92020
C          1.41741        0.41204       -0.20161
N          2.79252        0.03161        0.06096
C          3.00562       -1.26664       -0.19742
N          1.90946       -1.82225       -0.70602
H          0.75239       -0.62885       -1.99388
N          4.14197       -1.89130        0.02033
H          3.45342        0.62750        0.55113
H          1.88429       -2.75699       -1.10073
H          4.23998       -2.87296       -0.21650
H          4.93088       -1.39773        0.42426
