52
M5_hydrate_14_solv.log	Energy: -834323.6762391
C         -2.49736        1.20050       -1.21081
N         -3.13048        1.47270        0.06943
C         -2.50266        1.13443        1.19961
C         -1.34871        2.16443       -1.50331
H         -3.24718        1.35892       -1.99577
N         -2.77966        1.75185        2.33796
H         -3.38162        2.56858        2.34249
H         -2.47291        1.37092        3.22644
H         -3.85781        2.17918        0.11973
N         -1.57965        0.16227        1.16752
C          0.14290       -0.98620       -0.02588
C          0.72122       -0.41624        1.30121
C         -0.48009        0.07363        2.12233
O          0.35290       -2.35653       -0.15463
H         -0.30966        1.05644        2.57971
H         -0.72467       -0.63448        2.92689
H         -0.81237        1.85784       -2.41120
H         -1.74598        3.17873       -1.65000
O         -0.47566        2.17266       -0.38223
C          0.84358        2.28329       -0.54750
O          1.34720        2.59975       -1.60136
C         -2.09721       -0.27304       -1.25396
C         -1.42652       -0.76634        0.05913
N         -2.14223       -2.00015        0.31579
C         -3.16772       -2.17327       -0.51922
N         -3.24911       -1.15185       -1.37180
H         -1.42283       -0.42578       -2.10549
N         -3.98314       -3.20755       -0.49315
H         -1.84106       -2.68648        0.99907
H         -3.85467       -1.15466       -2.18594
H         -4.73019       -3.29066       -1.17382
H         -3.86853       -3.93094        0.20821
H          1.13013       -1.28749        1.82474
C          1.56657        2.04065        0.75431
C          1.89387        0.59301        1.19693
H          0.94571        2.49878        1.53684
H          2.19530        0.72905        2.24864
H          2.50675        2.60644        0.71793
C          5.38352       -1.26758       -0.61440
C          4.83154       -0.12643       -1.19338
C          3.70776        0.48103       -0.63063
C          3.11065       -0.03812        0.52346
C          3.68520       -1.17984        1.10313
C          4.80426       -1.79196        0.54146
H          6.26137       -1.74339       -1.05723
H          5.27563        0.29894       -2.09647
H          3.28927        1.36407       -1.11474
H          3.25747       -1.59742        2.01864
H          5.22984       -2.67949        1.01558
O          0.68755       -0.31079       -1.10952
H          1.30618       -2.51459       -0.09045
H          0.60098       -0.86586       -1.89700
