52
M5_hydrate_5_solv.log	Energy: -834321.4875300
C         -2.80564        1.06409       -1.10202
N         -3.15325        1.46007        0.25734
C         -2.25096        1.34128        1.23444
C         -1.88985        2.05997       -1.82941
H         -3.74695        1.04632       -1.66320
N         -2.31576        2.07048        2.33273
H         -2.98060        2.83453        2.40006
H         -1.74121        1.85506        3.14017
H         -3.90013        2.13780        0.38099
N         -1.26893        0.44573        1.05217
C          0.06391       -1.23426        0.02080
C          0.94081       -0.33928        0.95798
C         -0.08525        0.32014        1.88637
O          0.04541       -2.55531        0.46584
H          0.23522        1.30760        2.24006
H         -0.29860       -0.31280        2.76255
H         -2.13177        2.04398       -2.89833
H         -2.03317        3.07713       -1.44247
O         -0.52074        1.67477       -1.75725
C          0.29253        2.16664       -0.82005
O         -0.03283        3.02746       -0.03343
C         -2.23170       -0.36530       -1.11261
C         -1.44243       -0.70395        0.19055
N         -2.29888       -1.69849        0.81787
C         -3.26727       -2.10875       -0.01328
N         -3.26911       -1.37948       -1.12296
H         -1.58375       -0.48000       -1.98789
N         -4.09695       -3.09750        0.24778
H         -1.92346       -2.31550        1.53214
H         -3.98887       -1.43563       -1.83587
H         -4.81170       -3.35892       -0.42287
H         -4.03065       -3.60193        1.12518
H          1.52890       -1.03700        1.56695
C          1.63532        1.49364       -0.87484
C          1.98080        0.66934        0.38726
H          2.38876        2.29116       -0.95581
H          2.10291        1.40472        1.19581
H          1.69070        0.87249       -1.77332
C          5.95217       -0.98619       -0.16334
C          4.83793       -1.71390       -0.58076
C          3.55278       -1.19819       -0.40862
C          3.35855        0.05222        0.19150
C          4.48575        0.77382        0.60532
C          5.77144        0.26320        0.43021
H          6.95745       -1.39183       -0.29793
H          4.96737       -2.69329       -1.04739
H          2.69281       -1.77484       -0.75387
H          4.35143        1.75140        1.07726
H          6.63522        0.84254        0.76461
O          0.50265       -1.17184       -1.29108
H          0.96005       -2.86985        0.49941
H          0.13092       -1.92667       -1.77035
