45
M4_hydrate_1_solv.log	Energy: -714012.1023133
C          0.52887       -1.80747       -1.09356
N          0.57805       -2.29888        0.28117
C          0.14735       -1.53003        1.28650
C         -0.86895       -1.79690       -1.70877
H          1.11513       -2.51297       -1.69549
N         -0.26074       -2.04802        2.42969
H         -0.44063       -3.04426        2.50427
H         -0.45561       -1.45652        3.23046
H          0.59760       -3.30380        0.42857
N          0.15813       -0.20266        1.08539
C          0.50609        1.88195        0.00353
C         -0.83170        1.89725        0.80113
C         -0.59469        0.79816        1.83988
O          1.35352        2.76740        0.67545
H         -1.51195        0.35751        2.24889
H          0.00430        1.17747        2.68175
H         -0.76984       -1.71336       -2.79761
H         -1.41066       -2.71889       -1.46276
O         -1.61312       -0.64969       -1.30279
C         -2.43122       -0.73118       -0.24964
O         -2.66165       -1.76879        0.33031
C          1.20374       -0.42914       -1.19160
C          1.06549        0.39541        0.12560
N          2.43036        0.38580        0.62662
C          3.29339       -0.09900       -0.27408
N          2.64380       -0.53262       -1.34946
H          0.77438        0.12640       -2.03102
N          4.59858       -0.13647       -0.10684
H          2.71630        0.95850        1.41519
H          3.08240       -1.06741       -2.09215
H          5.19777       -0.51628       -0.83157
H          5.01799        0.24079        0.73621
H         -0.85276        2.86292        1.31843
C         -3.05170        0.60060        0.09707
C         -2.11234        1.80032       -0.06513
H         -3.38225        0.50570        1.14134
H         -2.72104        2.68919        0.15096
C         -4.30072        0.78041       -0.77815
H         -1.83736        1.87977       -1.12537
H         -4.83291        1.69636       -0.48434
H         -4.02528        0.86578       -1.84006
H         -4.98848       -0.06962       -0.66292
O          0.43056        2.19845       -1.34261
H          2.18792        2.82645        0.18768
H          0.10170        3.10478       -1.42619
