45
M4_hydrate_5_solv.log	Energy: -714011.7189176
C          0.48172       -1.84286       -1.03206
N          0.54519       -2.30346        0.35390
C          0.11471       -1.51631        1.34466
C         -0.92128       -1.88365       -1.63715
H          1.08244       -2.55062       -1.61605
N         -0.31819       -2.01183        2.48832
H         -0.52019       -3.00306        2.57224
H         -0.50277       -1.40715        3.28153
H          0.54875       -3.30643        0.51663
N          0.15764       -0.19198        1.13025
C          0.59956        1.86904        0.06940
C         -0.79675        1.91364        0.75967
C         -0.63437        0.82430        1.82376
O          1.51835        2.59049        0.84224
H         -1.57904        0.39198        2.17475
H         -0.09028        1.21105        2.69798
H         -0.83139       -1.88100       -2.72991
H         -1.45953       -2.78583       -1.31932
O         -1.66073       -0.70973       -1.31352
C         -2.46333       -0.69027       -0.24641
O         -2.71110       -1.67328        0.41528
C          1.12431       -0.44818       -1.17357
C          1.07613        0.36505        0.15631
N          2.45625        0.27229        0.61054
C          3.26196       -0.14717       -0.37726
N          2.55053       -0.52682       -1.43349
H          0.62718        0.10463       -1.97646
N          4.57480       -0.17724       -0.29766
H          2.78834        0.93216        1.30909
H          2.94183       -1.04780       -2.21197
H          5.12877       -0.50928       -1.07977
H          5.04506        0.14884        0.53978
H         -0.86666        2.88182        1.27184
C         -3.03147        0.68804       -0.00251
C         -2.00778        1.81126       -0.20254
H         -3.40445        0.67879        1.03167
H         -2.56662        2.75410       -0.12589
C         -4.23066        0.88404       -0.94069
H         -1.64629        1.76495       -1.23811
H         -4.72726        1.83868       -0.71593
H         -3.90659        0.90164       -1.99199
H         -4.96557        0.07576       -0.81570
O          0.63689        2.26675       -1.25855
H          1.14087        3.45473        1.05377
H          0.29614        3.16975       -1.32443
