36
dc-STX_40_solv.log	Energy: -569637.8983252
C         -0.85748       -1.41642       -1.14153
N         -0.82584       -2.13617        0.12049
C         -0.77217       -1.45520        1.26679
C         -2.22296       -0.72837       -1.33847
H         -0.70780       -2.14604       -1.94683
N         -1.14715       -2.01324        2.40822
H         -1.59156       -2.92550        2.40457
H         -0.92667       -1.58382        3.29967
H         -1.07556       -3.11955        0.14808
N         -0.34306       -0.18229        1.23377
C         -0.08996        1.89451        0.08095
C         -1.07445        2.01378        1.24935
C         -0.73079        0.86290        2.18231
O          0.95507        2.78669        0.29817
O         -0.67745        2.10929       -1.16952
H         -0.99116        2.99718        1.72623
H         -2.09327        1.88175        0.86236
H         -1.58529        0.53539        2.78570
H          0.10685        1.10481        2.85399
H         -2.97796       -1.51640       -1.47286
H         -2.48997       -0.17027       -0.42322
O         -2.24767        0.10751       -2.46726
C          0.30793       -0.43751       -1.17963
C          0.42131        0.38787        0.12606
N          1.84603        0.32563        0.38974
C          2.45698       -0.58708       -0.37520
N          1.59772       -1.10672       -1.24762
H          0.19338        0.23121       -2.04000
N          3.72955       -0.91000       -0.27687
H          2.28325        0.79207        1.17845
H          1.88260       -1.67749       -2.03687
H          4.13302       -1.59582       -0.90566
H          4.31439       -0.48305        0.43316
H          1.59646        2.69140       -0.42079
H         -1.11983        2.96998       -1.15389
H         -1.82158        0.93889       -2.20121
