36
dc-STX_23_solv.log	Energy: -569640.4829488
C          1.36162        1.27442       -0.59183
N          1.66540        1.04015        0.82033
C          1.39949       -0.17066        1.33706
C          2.29343        0.47698       -1.51011
H          1.53166        2.34230       -0.77935
N          2.14832       -0.68756        2.29684
H          2.99613       -0.21219        2.58822
H          1.85577       -1.51124        2.81108
H          2.48140        1.51985        1.19229
N          0.34882       -0.83763        0.84807
C         -1.21952       -1.40586       -0.76720
C         -1.20066       -2.51495        0.28550
C          0.09445       -2.27194        1.05480
O         -0.30117       -1.65920       -1.79042
O         -2.47445       -1.07392       -1.25836
H         -2.07611       -2.40193        0.93938
H         -1.23742       -3.51108       -0.17459
H          0.93895       -2.84843        0.65087
H         -0.01772       -2.50542        2.12258
H          2.06966        0.76059       -2.54891
H          2.09023       -0.60310       -1.41210
O          3.64634        0.77622       -1.26275
C         -0.11006        0.96851       -0.86692
C         -0.65342       -0.19143        0.01692
N         -1.66926        0.46760        0.81740
C         -1.86500        1.73264        0.42419
N         -0.98968        2.06895       -0.51513
H         -0.23188        0.71430       -1.92737
N         -2.79269        2.52820        0.91447
H         -2.35922       -0.04890        1.35516
H         -0.90197        3.00310       -0.90050
H         -2.88513        3.47810        0.57159
H         -3.42286        2.19775        1.63686
H         -0.42041       -2.56682       -2.10141
H         -2.89027       -1.87282       -1.61026
H          3.93500        0.27678       -0.48958
