36
dc-STX_11_solv.log	Energy: -569643.6202615
C         -0.76204       -1.66081       -0.95772
N         -1.13439       -1.87953        0.43575
C         -1.33891       -0.81259        1.22016
C         -1.95632       -1.15616       -1.78116
H         -0.47921       -2.63344       -1.38082
N         -2.21845       -0.84889        2.20765
H         -2.84112       -1.64373        2.30687
H         -2.24808       -0.12021        2.91172
H         -1.69710       -2.70199        0.63549
N         -0.60898        0.29225        1.00768
C          0.45080        1.79535       -0.43259
C         -0.00809        2.55854        0.80262
C         -1.03015        1.63140        1.44918
O          1.66105        2.27724       -0.89587
O         -0.52450        1.79541       -1.44051
H          0.85425        2.72254        1.46329
H         -0.43329        3.53411        0.53543
H         -2.05144        1.82045        1.08649
H         -1.01951        1.71442        2.54416
H         -2.68939       -1.97472       -1.83023
H         -1.60781       -0.96109       -2.81049
O         -2.61586       -0.04495       -1.22735
C          0.48421       -0.77433       -1.01715
C          0.51644        0.32334        0.08673
N          1.77043        0.05383        0.76047
C          2.40971       -0.99724        0.23978
N          1.70338       -1.52080       -0.75646
H          0.53888       -0.30444       -2.00824
N          3.57389       -1.44468        0.66364
H          2.16203        0.65583        1.47782
H          1.99221       -2.32960       -1.29598
H          4.00633       -2.24851        0.22152
H          4.04085       -0.99719        1.44471
H          1.90539        1.78982       -1.69670
H         -0.75188        2.71236       -1.65085
H         -2.04169        0.73362       -1.33462
