36
dc-STX_26_solv.log	Energy: -569640.6017866
C         -0.96674       -1.57171       -0.79434
N         -1.10486       -1.88253        0.62325
C         -1.11519       -0.87182        1.50269
C         -2.24841       -0.88521       -1.31230
H         -0.83002       -2.51874       -1.33095
N         -1.76522       -0.96876        2.65089
H         -2.35433       -1.77420        2.83502
H         -1.63692       -0.28360        3.38733
H         -1.59720       -2.73228        0.88295
N         -0.45616        0.25324        1.18897
C          0.26682        1.81072       -0.39005
C          0.06960        2.54228        0.93923
C         -0.74877        1.56873        1.78539
O          1.29915        2.28119       -1.19222
O         -0.89719        1.79503       -1.15243
H          1.05017        2.73562        1.39910
H         -0.43878        3.50353        0.79292
H         -1.82889        1.75995        1.70933
H         -0.45615        1.60215        2.84381
H         -3.03995       -1.64807       -1.35051
H         -2.56844       -0.11380       -0.59157
O         -2.09688       -0.33928       -2.59774
C          0.29613       -0.74404       -1.00567
C          0.48241        0.34123        0.08113
N          1.85065        0.11960        0.50946
C          2.37383       -0.98537       -0.03521
N          1.50736       -1.53836       -0.87689
H          0.26434       -0.27893       -1.99891
N          3.57770       -1.44803        0.23195
H          2.29679        0.64245        1.25718
H          1.72968       -2.32009       -1.48401
H          3.92113       -2.28232       -0.23137
H          4.17727       -0.96745        0.89378
H          2.03991        2.57237       -0.64530
H         -1.20719        2.70252       -1.27741
H         -1.68631        0.53032       -2.47103
