36
dc-STX_25_solv.log	Energy: -569639.9888824
C         -1.81718        0.63113       -0.39427
N         -2.06610       -0.78227       -0.60525
C         -1.11399       -1.69794       -0.75679
C         -3.01139        1.27813        0.28317
H         -1.68176        1.12932       -1.36894
N         -1.44652       -2.95681       -1.01464
H         -2.42340       -3.21220       -1.11111
H         -0.74645       -3.67264       -1.16589
H         -3.03018       -1.08075       -0.72827
N          0.18428       -1.36024       -0.63460
C          1.71398       -0.47447        0.89721
C          2.38868       -1.63740        0.17284
C          1.21783       -2.39891       -0.42750
O          2.55870        0.57995        1.23296
O          1.02947       -0.89181        2.03282
H          3.05746       -1.25336       -0.61116
H          2.98038       -2.25146        0.86351
H          0.83840       -3.15063        0.27935
H          1.47073       -2.89234       -1.37499
H         -3.89710        1.13916       -0.36281
H         -2.81920        2.36369        0.34478
O         -3.19659        0.69989        1.55230
C         -0.52699        0.80557        0.42009
C          0.60457       -0.06949       -0.13290
N          1.16044        0.82157       -1.14958
C          0.92543        2.09245       -0.77452
N          0.02947        2.13162        0.21664
H         -0.70826        0.59220        1.47780
N          1.49533        3.14522       -1.31642
H          2.01758        0.58590       -1.64514
H         -0.47990        2.97859        0.45149
H          1.24660        4.07950       -1.00833
H          2.19374        3.03395       -2.04376
H          3.35002        0.56278        0.68051
H          1.64444       -1.37802        2.59876
H         -3.92959        1.15405        1.98253
