36
dc-STX_42_solv.log	Energy: -569640.9268785
C         -0.78062       -1.67179       -0.92688
N         -1.15565       -1.86550        0.47086
C         -1.34539       -0.78738        1.24495
C         -1.95295       -1.16961       -1.76138
H         -0.50965       -2.65379       -1.33446
N         -2.22261       -0.80208        2.23402
H         -2.84496       -1.59428        2.35415
H         -2.24205       -0.06241        2.92723
H         -1.71762       -2.68464        0.68615
N         -0.61248        0.30960        1.00915
C          0.45287        1.78485       -0.47302
C         -0.00339        2.57035        0.75998
C         -1.02945        1.66065        1.42381
O          1.66804        2.18315       -1.01329
O         -0.45104        1.87277       -1.52677
H          0.85338        2.73781        1.42963
H         -0.42129        3.54201        0.47254
H         -2.04998        1.84496        1.05531
H         -1.02240        1.76255        2.51727
H         -2.74754       -1.93198       -1.73746
H         -1.61808       -1.05168       -2.80521
O         -2.43161        0.05187       -1.23127
C          0.46868       -0.78905       -1.00510
C          0.50834        0.31588        0.08598
N          1.76235        0.04334        0.76341
C          2.40302       -1.00414        0.23745
N          1.68707       -1.53618       -0.74806
H          0.51518       -0.32182       -1.99793
N          3.57517       -1.44362        0.64761
H          2.14374        0.62861        1.50023
H          1.99072       -2.32395       -1.31003
H          4.00539       -2.24786        0.20406
H          4.05173       -0.98833        1.41825
H          2.26013        2.46988       -0.30688
H         -1.24632        1.31650       -1.36999
H         -3.24716        0.29881       -1.68577
