36
dc-STX_14_solv.log	Energy: -569640.4621369
C          1.35954        1.25542       -0.61135
N          1.64225        1.09600        0.81275
C          1.34097       -0.07487        1.39568
C          2.28856        0.40346       -1.46782
H          1.54508        2.30898       -0.85803
N          2.05354       -0.53817        2.40980
H          2.89903       -0.05638        2.69684
H          1.73242       -1.32216        2.96683
H          2.47476        1.56723        1.15629
N          0.29715       -0.76520        0.92324
C         -1.11406       -1.47995       -0.77564
C         -1.16875       -2.51624        0.34453
C          0.03389       -2.18190        1.22467
O         -2.30791       -1.20566       -1.42101
O         -0.11860       -1.89199       -1.66636
H         -2.11091       -2.39269        0.89486
H         -1.12570       -3.53529       -0.05743
H          0.92241       -2.77414        0.96316
H         -0.18601       -2.32449        2.29203
H          2.03525        0.57727       -2.52910
H          2.11931       -0.66701       -1.25831
O          3.60878        0.78960       -1.16945
C         -0.11413        0.96449       -0.87855
C         -0.66699       -0.19855       -0.00582
N         -1.77299        0.43312        0.69112
C         -1.92292        1.71443        0.34373
N         -0.97409        2.07511       -0.51371
H         -0.24529        0.73930       -1.94607
N         -2.87417        2.50472        0.79685
H         -2.44729       -0.07838        1.25192
H         -0.89652        3.00111       -0.92010
H         -2.92776        3.46932        0.48834
H         -3.55766        2.15709        1.46023
H         -2.62747       -2.02285       -1.82811
H         -0.08635       -1.28120       -2.41626
H          4.20603        0.14194       -1.55949
