36
dc-STX_49_solv.log	Energy: -569640.4756177
C         -1.78181        0.74863       -0.37851
N         -2.09983       -0.64485       -0.62850
C         -1.19876       -1.61156       -0.78735
C         -2.94140        1.41959        0.35418
H         -1.64524        1.27067       -1.34046
N         -1.59956       -2.84233       -1.08008
H         -2.58708       -3.03749       -1.20517
H         -0.93826       -3.58706       -1.26352
H         -3.07205       -0.87648       -0.81933
N          0.11251       -1.35524       -0.63309
C          1.67699       -0.56303        0.89972
C          2.29300       -1.75767        0.17491
C          1.08602       -2.45120       -0.43829
O          2.55906        0.47311        1.17244
O          0.96098       -0.96602        2.03070
H          2.98645       -1.39674       -0.59710
H          2.84701       -2.40917        0.86362
H          0.66074       -3.19218        0.25375
H          1.31725       -2.94252       -1.39257
H         -3.84568        1.34268       -0.27475
H         -2.70925        2.48925        0.45980
O         -3.15781        0.90279        1.64429
C         -0.47689        0.84696        0.42164
C          0.60543       -0.09013       -0.13099
N          1.20501        0.76454       -1.15189
C          1.03942        2.04804       -0.78340
N          0.15212        2.13983        0.21272
H         -0.66694        0.64512        1.48036
N          1.66076        3.06655       -1.33356
H          2.04984        0.47996       -1.64249
H         -0.31187        3.01380        0.44223
H          1.46376        4.01391       -1.02790
H          2.34940        2.91622       -2.06331
H          3.37196        0.10430        1.54236
H          1.51646       -1.55970        2.55334
H         -3.51342        0.00914        1.56098
