36
dc-STX_28_solv.log	Energy: -569641.2734363
C          1.33412        1.47549       -0.08082
N          1.53842        1.01820        1.28794
C          1.33307       -0.27468        1.57884
C          2.43687        0.94083       -1.00593
H          1.39712        2.57195       -0.07173
N          2.00908       -0.87494        2.54494
H          2.77335       -0.39226        3.00606
H          1.73358       -1.78605        2.89438
H          2.23204        1.50933        1.84518
N          0.42084       -0.94238        0.86334
C         -0.82794       -1.37917       -1.05110
C         -0.80340       -2.64680       -0.20537
C          0.33326       -2.40933        0.78481
O         -2.04922       -1.22799       -1.68972
O          0.24305       -1.32048       -1.94264
H         -1.76636       -2.75469        0.31253
H         -0.64194       -3.53769       -0.82548
H          1.29252       -2.80623        0.42282
H          0.11434       -2.85000        1.76677
H          2.39034       -0.15765       -1.04094
H          3.41179        1.22679       -0.57535
O          2.28710        1.40386       -2.32447
C         -0.06297        1.09131       -0.56459
C         -0.54353       -0.27032        0.00802
N         -1.74299        0.09719        0.73621
C         -2.03703        1.39439        0.59429
N         -1.09482        2.00854       -0.11155
H         -0.04496        1.05502       -1.66115
N         -3.10984        1.97292        1.09448
H         -2.40069       -0.58476        1.10127
H         -1.09209        3.00240       -0.31388
H         -3.27027        2.96444        0.95423
H         -3.78044        1.43344        1.63086
H         -1.99453       -0.44763       -2.25998
H          0.25472       -2.13594       -2.46189
H          2.42455        2.35942       -2.32553
