36
dc-STX_7_solv.log	Energy: -569640.4051163
C          1.36984        1.26341       -0.57521
N          1.66355        1.03135        0.83905
C          1.38699       -0.17952        1.35027
C          2.30196        0.46342       -1.47756
H          1.54651        2.33013       -0.76538
N          2.13110       -0.70568        2.30853
H          2.98339       -0.23914        2.60101
H          1.83297       -1.52989        2.81861
H          2.50418        1.48068        1.19323
N          0.33073       -0.83816        0.86147
C         -1.21222       -1.40356       -0.77818
C         -1.21126       -2.51398        0.27318
C          0.07317       -2.27310        1.06096
O         -2.45812       -1.06896       -1.29008
O         -0.27686       -1.65637       -1.78611
H         -2.09604       -2.39989        0.91419
H         -1.24292       -3.50973       -0.18822
H          0.92288       -2.84860        0.66644
H         -0.05245       -2.50936        2.12666
H          2.05445        0.70231       -2.52721
H          2.12827       -0.61754       -1.33422
O          3.62186        0.82658       -1.15028
C         -0.10167        0.96879       -0.85894
C         -0.65848       -0.19082        0.01668
N         -1.68606        0.46827        0.80156
C         -1.86745        1.73706        0.41488
N         -0.97346        2.07508       -0.50633
H         -0.22050        0.72052       -1.92104
N         -2.79893        2.53449        0.89494
H         -2.38262       -0.04646        1.33232
H         -0.88263        3.00791       -0.89407
H         -2.87918        3.48787        0.55871
H         -3.44258        2.20249        1.60464
H         -2.86556       -1.86469       -1.65851
H         -0.37693       -2.57003       -2.08567
H          4.21983        0.20580       -1.58078
