36
dc-STX_34_solv.log	Energy: -569642.6482211
C         -0.74185       -1.63141       -1.01353
N         -1.08877       -1.91188        0.37427
C         -1.29253       -0.88001        1.20421
C         -1.95325       -1.09772       -1.79582
H         -0.46149       -2.58299       -1.48343
N         -2.14508       -0.97258        2.21193
H         -2.74939       -1.78360        2.29395
H         -2.17152       -0.27256        2.94452
H         -1.63049       -2.75267        0.55303
N         -0.58966        0.24644        1.01445
C          0.38883        1.81514       -0.40358
C         -0.04426        2.53036        0.87143
C         -1.01253        1.55692        1.53436
O          1.58756        2.21343       -0.95804
O         -0.66473        1.93212       -1.33065
H          0.84212        2.69609        1.49848
H         -0.50550        3.49903        0.64613
H         -2.05589        1.73818        1.23644
H         -0.94373        1.59464        2.63000
H         -2.66305       -1.93072       -1.90446
H         -1.61420       -0.81651       -2.80831
O         -2.64435       -0.05191       -1.15984
C          0.50158       -0.74081       -1.04854
C          0.52030        0.33463        0.07642
N          1.79019        0.08063        0.72893
C          2.42948       -0.96712        0.20313
N          1.71882       -1.49045       -0.79086
H          0.56848       -0.26444       -2.03618
N          3.59729       -1.41306        0.61879
H          2.16513        0.65854        1.47427
H          2.01935       -2.28027       -1.35165
H          4.02846       -2.21513        0.17225
H          4.06723       -0.96781        1.39932
H          1.55299        3.16738       -1.11695
H         -0.32767        1.71538       -2.21243
H         -2.10288        0.75480       -1.21786
