36
dc-STX_9_solv.log	Energy: -569640.0787298
C         -0.93012       -1.60263       -0.78496
N         -1.03678       -1.92352        0.63004
C         -1.01504       -0.93032        1.53070
C         -2.22703       -0.94780       -1.28184
H         -0.77326       -2.54249       -1.32839
N         -1.60606       -1.06698        2.70711
H         -2.17027       -1.88777        2.90068
H         -1.45261       -0.39827        3.45380
H         -1.50440       -2.78536        0.89504
N         -0.38874        0.21151        1.21848
C          0.11812        1.81811       -0.37765
C          0.03731        2.52439        0.97611
C         -0.63191        1.49836        1.89456
O          1.09793        2.26833       -1.25006
O         -1.15829        1.87932       -0.93751
H          1.05123        2.77085        1.31875
H         -0.54144        3.45255        0.89905
H         -1.71663        1.65761        1.97339
H         -0.19917        1.50379        2.90475
H         -2.99213       -1.73304       -1.38673
H         -2.58815       -0.22284       -0.53197
O         -1.97321       -0.30645       -2.51353
C          0.30768       -0.74051       -1.01342
C          0.47367        0.36595        0.05503
N          1.87460        0.23339        0.41073
C          2.42243       -0.86689       -0.11317
N          1.53980       -1.50119       -0.88129
H          0.25993       -0.29399       -2.01466
N          3.66018       -1.26024        0.10415
H          2.33244        0.81106        1.10865
H          1.78957       -2.25740       -1.51016
H          4.02090       -2.09271       -0.34935
H          4.27076       -0.72374        0.71081
H          0.90867        3.19321       -1.45961
H         -1.24289        1.29228       -1.71310
H         -2.81570       -0.03618       -2.89884
