36
dc-STX_12_solv.log	Energy: -569640.2737020
C          1.36713        1.26875       -0.59128
N          1.66534        1.04206        0.82354
C          1.38822       -0.16169        1.35104
C          2.29901        0.46222       -1.50128
H          1.54320        2.33457       -0.78508
N          2.13051       -0.67562        2.31762
H          2.98127       -0.20442        2.60712
H          1.82886       -1.49100        2.83978
H          2.48388        1.51861        1.19411
N          0.33334       -0.82525        0.86652
C         -1.19978       -1.41657       -0.78321
C         -1.20671       -2.51122        0.28473
C          0.07391       -2.25940        1.07615
O         -2.42501       -1.15549       -1.38836
O         -0.26071       -1.66374       -1.77729
H         -2.09296       -2.39576        0.92632
H         -1.23375       -3.51017       -0.16817
H          0.92474       -2.83798        0.68877
H         -0.05483       -2.48713        2.14322
H          2.07416        0.73390       -2.54305
H          2.09796       -0.61697       -1.39116
O          3.65168        0.76675       -1.25829
C         -0.10556        0.97004       -0.86744
C         -0.65214       -0.19050        0.00991
N         -1.69614        0.46024        0.78073
C         -1.87149        1.73368        0.41005
N         -0.97896        2.07468       -0.51135
H         -0.23012        0.72011       -1.92897
N         -2.79646        2.53200        0.90176
H         -2.34999       -0.04268        1.37336
H         -0.89359        3.00704       -0.90125
H         -2.87031        3.48994        0.57723
H         -3.44089        2.19656        1.60905
H         -3.14627       -1.37155       -0.78450
H         -0.44996       -2.52778       -2.16886
H          3.94205        0.27603       -0.48023
