36
dc-STX_17_solv.log	Energy: -569642.5129859
C         -0.78798       -1.66397       -0.93828
N         -1.16222       -1.86052        0.45872
C         -1.34991       -0.78141        1.23081
C         -1.97776       -1.15450       -1.76501
H         -0.51808       -2.64537       -1.34949
N         -2.23069       -0.79031        2.21760
H         -2.86822       -1.57188        2.32615
H         -2.24831       -0.05230        2.91241
H         -1.74007       -2.67028        0.66732
N         -0.60059        0.30830        1.00767
C          0.47034        1.77564       -0.46189
C          0.03220        2.56429        0.76951
C         -0.99998        1.66028        1.43315
O          1.66765        2.17347       -1.03973
O         -0.51020        1.77782       -1.45560
H          0.89698        2.72156        1.43060
H         -0.37741        3.54383        0.49300
H         -2.01976        1.86037        1.07234
H         -0.98261        1.75697        2.52690
H         -2.72059       -1.96476       -1.80450
H         -1.62934       -0.97352       -2.79690
O         -2.62335       -0.03032       -1.22072
C          0.46864       -0.79239       -1.01233
C          0.51805        0.31252        0.08079
N          1.77507        0.03826        0.74909
C          2.39921       -1.02564        0.23523
N          1.68036       -1.55099       -0.75073
H          0.52423       -0.33020       -2.00642
N          3.56060       -1.48219        0.65690
H          2.15742        0.61609        1.49114
H          1.96643       -2.35592       -1.29747
H          3.98003       -2.29687        0.22207
H          4.03815       -1.03167        1.42972
H          2.23366        2.58419       -0.37406
H         -0.71905        2.69488       -1.68365
H         -2.04073        0.74045       -1.33727
