36
dc-STX_8_solv.log	Energy: -569640.7574409
C         -1.30166       -1.50426       -0.11052
N         -1.50758       -1.08716        1.27044
C         -1.33250        0.20411        1.58865
C         -2.41418       -0.96723       -1.01118
H         -1.34409       -2.60097       -0.13379
N         -2.02405        0.76704        2.56539
H         -2.77767        0.25618        3.01349
H         -1.77471        1.67841        2.93329
H         -2.19410       -1.60319        1.81415
N         -0.43509        0.90841        0.89000
C          0.79700        1.41874       -1.01851
C          0.74150        2.66594       -0.14426
C         -0.38929        2.37850        0.83865
O          2.02190        1.31311       -1.65926
O         -0.27194        1.35521       -1.91264
H          1.70111        2.78511        0.37752
H          0.55896        3.56652       -0.74421
H         -1.35885        2.75429        0.48131
H         -0.18545        2.80755        1.82907
H         -2.37053        0.13484       -1.03562
H         -3.38249       -1.26115       -0.56862
O         -2.23908       -1.51927       -2.29394
C          0.08575       -1.07867       -0.58989
C          0.53997        0.27837        0.01448
N          1.74975       -0.08181        0.72884
C          2.06920       -1.36917        0.55533
N          1.13707       -1.98524       -0.16195
H          0.06334       -1.01598       -1.68483
N          3.15550       -1.93731        1.03785
H          2.39642        0.60468        1.10486
H          1.15169       -2.97451       -0.38529
H          3.33415       -2.92239        0.87595
H          3.81574       -1.39773        1.58684
H          1.98969        0.54221       -2.24396
H         -0.29854        2.17997       -2.41642
H         -2.71579       -0.97182       -2.92751
