36
dc-STX_1_solv.log	Energy: -569641.2036667
C         -0.75984       -1.65967       -0.95212
N         -1.13352       -1.88110        0.44104
C         -1.33512       -0.81673        1.23073
C         -1.93673       -1.15231       -1.77893
H         -0.48266       -2.63223       -1.37777
N         -2.21143       -0.85713        2.22013
H         -2.82567       -1.65780        2.32596
H         -2.24011       -0.12827        2.92426
H         -1.68596       -2.70986        0.64331
N         -0.61512        0.29213        1.01069
C          0.43982        1.78495       -0.44410
C         -0.03120        2.55830        0.79078
C         -1.04796        1.63110        1.44486
O          1.68938        2.14542       -0.91715
O         -0.47274        1.87682       -1.50019
H          0.82744        2.72664        1.45600
H         -0.46062        3.52795        0.51197
H         -2.07156        1.80767        1.08097
H         -1.04006        1.71878        2.53964
H         -2.71362       -1.93309       -1.78612
H         -1.59665       -0.99454       -2.81592
O         -2.44956        0.03990       -1.21550
C          0.48588       -0.77159       -1.01114
C          0.51511        0.32095        0.09481
N          1.76304        0.04525        0.77893
C          2.41746       -0.98449        0.23503
N          1.70547       -1.51641       -0.75374
H          0.53590       -0.29118       -1.99718
N          3.59798       -1.41107        0.63496
H          2.17371        0.67470        1.46118
H          2.01323       -2.30122       -1.31755
H          4.03927       -2.20225        0.17908
H          4.06746       -0.96199        1.41360
H          1.65542        3.07703       -1.17409
H         -1.28435        1.34943       -1.33118
H         -3.27737        0.26832       -1.65707
