49
M5_2_solv.log	Energy: -786351.8272200
C         -2.11910        1.01181       -1.51878
N         -2.71489        1.63079       -0.34495
C         -2.27078        1.37021        0.88769
C         -0.78181        1.64260       -1.88211
H         -2.80000        1.16849       -2.36424
N         -2.49502        2.22495        1.87339
H         -2.92148        3.12487        1.67735
H         -2.37287        1.95013        2.84176
H         -3.27547        2.46749       -0.47686
N         -1.60596        0.22462        1.12690
C          0.09227       -1.07020        0.16875
C          0.64831       -0.49659        1.45451
C         -0.58350        0.07509        2.17679
O          0.66613       -1.69989       -0.67744
H         -0.38884        1.04014        2.65663
H         -0.94522       -0.61788        2.94786
H         -0.38696        1.20111       -2.80736
H         -0.88514        2.72702       -2.01086
O          0.11260        1.35828       -0.80818
C          0.97439        2.28227       -0.37818
O          1.16265        3.32353       -0.96076
C         -1.98186       -0.48421       -1.27885
C         -1.43569       -0.81112        0.12352
N         -2.17528       -2.01750        0.44828
C         -3.26403       -2.13005       -0.33149
N         -3.24891       -1.19735       -1.28448
H         -1.29889       -0.91774       -2.02548
N         -4.19891       -3.03860       -0.16835
H         -2.10190       -2.47483        1.35356
H         -3.84194       -1.24343       -2.10792
H         -4.97967       -3.09499       -0.81405
H         -4.14271       -3.69782        0.60098
H          1.01350       -1.37440        2.00933
C          1.60198        1.91920        0.93905
C          1.87604        0.45815        1.32346
H          0.92883        2.37246        1.68634
H          2.24662        0.53259        2.35726
H          2.54003        2.48595        1.00813
C          5.03248       -1.53823       -0.88508
C          4.40556       -0.42455       -1.43851
C          3.39391        0.23703       -0.73849
C          2.99180       -0.20322        0.52621
C          3.64036       -1.31803        1.07683
C          4.64765       -1.98137        0.38194
H          5.82230       -2.05596       -1.43384
H          4.70215       -0.06164       -2.42520
H          2.93419        1.11031       -1.20457
H          3.34941       -1.67123        2.07034
H          5.13784       -2.84723        0.83287
