46
M1_3_solv.log	Energy: -714616.4630019
C         -1.49169        1.59171       -1.16097
N         -1.79228        2.12376        0.16026
C         -1.33535        1.52198        1.26120
C         -0.05453        1.86781       -1.58992
H         -2.14664        2.09416       -1.88339
N         -1.20438        2.19304        2.39266
H         -1.34669        3.19778        2.41100
H         -1.05457        1.70813        3.27095
H         -2.09815        3.08920        0.23850
N         -1.00618        0.21540        1.21939
C          0.04143       -1.35943       -0.15298
C          0.87877       -1.26853        1.09923
C          0.07926       -0.35082        2.04224
O          0.29781       -1.91413       -1.18835
H          0.69585        0.46697        2.43487
H         -0.33619       -0.90808        2.89186
H          0.16109        1.37303       -2.54620
H          0.11028        2.94900       -1.69627
O          0.80371        1.37750       -0.56365
C          2.03625        0.93505       -0.84231
O          2.48031        0.88908       -1.96456
C         -1.81909        0.10605       -1.17690
C         -1.30136       -0.62612        0.07737
N         -2.37816       -1.56632        0.33420
C         -3.49630       -1.19842       -0.31349
N         -3.24401       -0.17327       -1.12708
H         -1.36955       -0.36301       -2.06479
N         -4.66556       -1.77866       -0.16246
H         -2.38846       -2.17287        1.15001
H         -3.88234        0.12006       -1.86048
H         -5.46460       -1.46935       -0.70604
H         -4.77982       -2.54189        0.49617
H          0.87197       -2.29747        1.49735
C          2.74396        0.52780        0.42900
C          2.36244       -0.89276        0.92684
C          3.18822       -1.81937        0.02529
C          4.51201       -1.06576       -0.20981
C          4.25885        0.39477        0.23106
H          2.48477        1.28577        1.18164
H          2.78504       -0.94736        1.94326
H          3.32777       -2.80718        0.48767
H          2.66311       -1.97710       -0.92619
H          4.80687       -1.11916       -1.26711
H          5.33253       -1.50645        0.37397
H          4.64483        1.13257       -0.48506
H          4.74490        0.59229        1.19685
