46
M1_4_solv.log	Energy: -714616.3661897
C         -1.31241        1.35839       -1.42384
N         -1.54991        2.09527       -0.19038
C         -1.12124        1.63407        0.98493
C          0.11332        1.45858       -1.95932
H         -1.95441        1.80468       -2.19408
N         -0.99785        2.43248        2.02983
H         -1.08235        3.43756        1.91619
H         -0.83720        2.05746        2.95838
H         -1.84190        3.06622       -0.24830
N         -0.80955        0.32649        1.08303
C          0.00167       -1.57023        0.00241
C          0.91676       -1.30841        1.17856
C          0.18393       -0.23805        2.01031
O          0.12175       -2.38853       -0.86868
H          0.85393        0.55681        2.36208
H         -0.31513       -0.67773        2.88473
H          0.13871        1.02763       -2.96715
H          0.43061        2.50714       -2.00114
O          1.04848        0.69347       -1.19009
C          1.77567        1.31801       -0.25003
O          1.62352        2.48747        0.01887
C         -1.74275       -0.08962       -1.22811
C         -1.24519       -0.66021        0.11633
N         -2.39930       -1.41801        0.56689
C         -3.49802       -1.08121       -0.12683
N         -3.18201       -0.25038       -1.11895
H         -1.35058       -0.71172       -2.04690
N         -4.70714       -1.52186        0.13876
H         -2.43289       -1.88034        1.47162
H         -3.81542       -0.03103       -1.88175
H         -5.49319       -1.24131       -0.43826
H         -4.86835       -2.13547        0.93050
H          0.92346       -2.26296        1.72818
C          2.81085        0.43409        0.38720
C          2.39566       -0.99801        0.86479
C          3.09199       -1.96320       -0.10137
C          4.41204       -1.25624       -0.38457
C          3.98229        0.19451       -0.61075
H          3.16639        1.00870        1.25074
H          2.90113       -1.10952        1.83575
H          3.20603       -2.96769        0.33155
H          2.51915       -2.06199       -1.03517
H          4.95265       -1.67162       -1.24678
H          5.07396       -1.32672        0.49378
H          3.61775        0.30694       -1.64338
H          4.79069        0.92292       -0.46398
