46
M1_6_solv.log	Energy: -714614.6403253
C         -1.61596        1.90356       -0.18255
N         -1.85769        1.68507        1.23522
C         -1.35500        0.64663        1.90632
C         -0.28054        2.57444       -0.46436
H         -2.39371        2.58760       -0.54551
N         -1.25910        0.69378        3.22620
H         -1.47140        1.55471        3.71945
H         -1.10723       -0.14672        3.77266
H         -2.21540        2.46427        1.77997
N         -0.97200       -0.45603        1.23646
C          0.28229       -1.00394       -0.64957
C          1.10871       -1.36103        0.56416
C          0.06206       -1.40299        1.68798
O          0.61291       -1.02398       -1.80492
H          0.47527       -1.10093        2.65586
H         -0.38302       -2.40153        1.79729
H         -0.18762        2.79016       -1.53639
H         -0.19838        3.51127        0.10262
O          0.76577        1.70322       -0.04304
C          1.81414        1.46472       -0.84948
O          1.93902        1.96429       -1.94135
C         -1.76298        0.58855       -0.93615
C         -1.15028       -0.61623       -0.19536
N         -2.09703       -1.66808       -0.51769
C         -3.26241       -1.14642       -0.93668
N         -3.14658        0.17153       -1.09422
H         -1.27639        0.67351       -1.92027
N         -4.35163       -1.84505       -1.16166
H         -2.02268       -2.60701       -0.13476
H         -3.82637        0.72723       -1.60526
H         -5.18811       -1.39032       -1.51316
H         -4.36790       -2.84406       -0.98423
H          1.50483       -2.36695        0.36051
C          2.80748        0.55985       -0.18231
C          2.30143       -0.40572        0.90699
C          3.57951       -1.21826        1.15170
C          4.12006       -1.49307       -0.26161
C          3.71129       -0.26809       -1.11360
H          3.44920        1.27580        0.36306
H          2.00587        0.17142        1.79307
H          4.29044       -0.59581        1.71672
H          3.39902       -2.13235        1.73547
H          3.65539       -2.40425       -0.66932
H          5.20563       -1.66223       -0.25917
H          3.16280       -0.57408       -2.01483
H          4.57760        0.32151       -1.44246
