42
M2_hydrate_6_solv.log	Energy: -689346.6566790
C          0.42514       -1.97993       -0.83257
N          0.52257       -2.30009        0.58605
C          0.00299       -1.46357        1.49483
C         -0.97124       -2.28066       -1.38169
H          1.09773       -2.66311       -1.36692
N         -0.39633       -1.90281        2.67428
H         -0.43009       -2.90019        2.86083
H         -0.60937       -1.26418        3.43269
H          0.58323       -3.28229        0.84102
N         -0.08600       -0.16540        1.16434
C          0.06412        1.83932       -0.13234
C         -1.12529        1.90515        0.87647
C         -0.75282        0.87738        1.94258
O          0.94990        2.84301        0.24519
H         -1.62760        0.47438        2.46840
H         -0.06097        1.29608        2.68997
H         -1.03886       -2.00168       -2.44036
H         -1.17377       -3.35243       -1.27438
O         -1.97848       -1.61994       -0.61198
C         -2.36167       -0.40040       -0.97398
O         -2.06378        0.08661       -2.04969
C          0.95185       -0.55279       -1.08791
C          0.75761        0.40049        0.13156
N          2.12296        0.56031        0.61011
C          3.01319        0.08253       -0.26906
N          2.39224       -0.53830       -1.26617
H          0.46806       -0.14340       -1.98140
N          4.31715        0.21544       -0.15202
H          2.36047        1.29465        1.27124
H          2.86985       -1.08547       -1.97501
H          4.93764       -0.17353       -0.85363
H          4.71228        0.71380        0.63812
H         -1.07328        2.91334        1.30377
C         -3.11099        0.33647        0.09013
C         -2.55467        1.74872        0.32276
H         -3.12830       -0.26375        1.00842
H         -3.22422        2.22640        1.05145
H         -4.15114        0.43290       -0.25818
H         -2.64847        2.33861       -0.60099
O         -0.24606        2.05684       -1.46658
H          1.68822        2.85450       -0.38226
H         -0.98164        1.49271       -1.76904
