42
M2_hydrate_4_solv.log	Energy: -689346.0201710
C          0.12453       -1.88390       -0.96188
N         -0.01519       -2.25464        0.44454
C         -0.40627       -1.35074        1.34860
C         -1.20234       -1.75539       -1.70729
H          0.66371       -2.70815       -1.44412
N         -0.99571       -1.70781        2.47445
H         -1.33291       -2.65755        2.59448
H         -1.14430       -1.03952        3.22267
H         -0.16789       -3.23563        0.66055
N         -0.16125       -0.06184        1.06652
C          0.60960        1.85198       -0.10326
C         -0.79077        2.12115        0.51431
C         -0.82579        1.10095        1.65424
O          0.64695        2.20605       -1.44189
H         -1.83607        0.83430        1.98659
H         -0.26399        1.46696        2.52660
H         -1.00461       -1.79437       -2.78520
H         -1.88538       -2.56946       -1.43360
O         -1.80491       -0.48583       -1.47112
C         -2.71185       -0.34942       -0.49830
O         -3.16585       -1.28607        0.11934
C          0.98150       -0.61176       -1.10260
C          0.90397        0.30612        0.15464
N          2.21119        0.09770        0.75937
C          3.04831       -0.51412       -0.09049
N          2.40051       -0.91027       -1.18158
H          0.66428       -0.05599       -1.99169
N          4.33175       -0.69423        0.13892
H          2.55633        0.76628        1.44231
H          2.79689       -1.53882       -1.87290
H          4.91505       -1.16320       -0.54567
H          4.75316       -0.34368        0.99243
H         -0.74016        3.12552        0.95341
C         -3.09345        1.08865       -0.28859
C         -1.97750        2.11337       -0.48565
H         -3.57238        1.16108        0.69685
H         -2.45174        3.10243       -0.43728
H         -3.88255        1.29793       -1.03015
H         -1.59056        2.02074       -1.50678
O          1.59777        2.52705        0.61857
H          1.56925        2.18390       -1.73497
H          1.40325        3.47397        0.58952
