55
M6_hydrate_13_solv.log	Energy: -952637.8792107
C         -3.47167        1.01490       -1.20945
N         -3.94712        1.34519        0.12882
C         -3.10725        1.25524        1.16249
C         -2.54158        2.07563       -1.81884
H         -4.36134        0.98084       -1.84879
N         -3.29126        1.94752        2.27069
H         -4.00497        2.66795        2.31204
H         -2.75551        1.74984        3.10878
H         -4.74674        1.96588        0.21429
N         -2.05969        0.42703        1.02298
C         -0.58764       -1.18887        0.05930
C          0.18101       -0.28914        1.09529
C         -0.92540        0.36612        1.92997
O         -0.49157       -2.54426        0.39338
H         -0.66025        1.37588        2.26727
H         -1.16998       -0.24610        2.81270
H         -2.69905        2.10077       -2.90323
H         -2.75588        3.06769       -1.40041
O         -1.16812        1.73883       -1.65434
C         -0.44067        2.22893       -0.64844
O         -0.84793        3.05884        0.13318
C         -2.84109       -0.38963       -1.21330
C         -2.11879       -0.71496        0.13424
N         -2.96492       -1.75843        0.68669
C         -3.87462       -2.18506       -0.19854
N         -3.83887       -1.44030       -1.29696
H         -2.13902       -0.47010       -2.04818
N         -4.68783       -3.20044        0.00684
H         -2.65013       -2.34524        1.45324
H         -4.51168       -1.51431       -2.05269
H         -5.35753       -3.47338       -0.70439
H         -4.64858       -3.71917        0.87748
H          0.72743       -0.96354        1.76580
C          0.92848        1.60702       -0.63667
C          1.24948        0.71854        0.59505
H          1.64377        2.44194       -0.63593
H          1.37470        1.40929        1.44280
H          1.06564        1.04243       -1.56351
C          3.73840        0.95334        0.35180
C          2.62083        0.08595        0.37184
C          2.81356       -1.28247        0.16980
C          4.08798       -1.83557       -0.06803
H          3.62997        2.02542        0.52767
H          1.97497       -1.97935        0.21844
H          4.22196       -2.90770       -0.21522
O         -0.19072       -1.06657       -1.25744
H         -0.33117       -2.65496        1.33973
H          0.73591       -1.33291       -1.33642
C          5.15217       -0.96504       -0.09520
C          4.97615        0.40210        0.11557
O          6.19268        1.01891        0.08501
C          7.11864        0.04161       -0.37594
O          6.48197       -1.22529       -0.26337
H          7.36788        0.23858       -1.43321
H          8.01929        0.06053        0.25140
