55
M6_hydrate_26_solv.log	Energy: -952637.0088487
C         -2.31275        0.88240       -1.81293
N         -3.16762        1.53099       -0.82815
C         -2.93639        1.40607        0.48359
C         -0.98952        1.60176       -2.04640
H         -2.84701        0.90812       -2.77105
N         -3.42104        2.28967        1.34161
H         -3.84957        3.14444        1.00145
H         -3.41749        2.11113        2.33959
H         -3.74794        2.30675       -1.13302
N         -2.19751        0.36960        0.90137
C         -0.52390       -1.30131        0.60805
C         -0.14715       -0.33751        1.78164
C         -1.50560        0.24877        2.18150
O         -0.72925       -2.59114        1.10614
H         -1.43539        1.21844        2.68579
H         -2.05690       -0.43721        2.84208
H         -0.45511        1.11749       -2.87234
H         -1.16045        2.65726       -2.28915
O         -0.15330        1.48412       -0.89792
C         -0.10576        2.48820       -0.02420
O         -0.61659        3.56708       -0.22616
C         -2.11276       -0.58456       -1.43413
C         -1.96287       -0.81856        0.09682
N         -2.98992       -1.81220        0.35650
C         -3.67028       -2.13722       -0.74670
N         -3.26609       -1.39801       -1.77382
H         -1.22261       -0.95942       -1.95452
N         -4.61110       -3.05767       -0.79789
H         -2.95887       -2.40292        1.18100
H         -3.61379       -1.50396       -2.72077
H         -5.08020       -3.26166       -1.67346
H         -4.88625       -3.55773        0.04016
H          0.18129       -1.00708        2.58586
C          0.62238        2.16170        1.24859
C          0.98960        0.72901        1.67008
H          0.00721        2.62677        2.03195
H          1.24255        0.88162        2.73115
H          1.54140        2.76975        1.23405
C          2.85772        0.73912       -0.09280
C          2.27664        0.18114        1.06285
C          2.90799       -0.89403        1.69830
C          4.09988       -1.46017        1.21800
H          2.40634        1.56960       -0.63422
H          2.46451       -1.31402        2.60440
H          4.57750       -2.30138        1.72178
O          0.42301       -1.32366       -0.39755
H          0.09804       -2.88807        1.51000
H          0.29752       -2.13803       -0.90592
C          4.64207       -0.89643        0.08231
C          4.03220        0.18011       -0.55092
O          4.76070        0.51903       -1.65840
C          5.98206       -0.20083       -1.54761
O          5.76524       -1.25200       -0.61532
H          6.25420       -0.62115       -2.52420
H          6.77411        0.47106       -1.17059
