55
M6_hydrate_19_solv.log	Energy: -952641.3363674
C         -3.07953        0.99218        1.49908
N         -2.52840       -0.03304        2.37139
C         -1.54374       -0.85271        1.98726
C         -2.26510        2.27678        1.49277
H         -4.06581        1.25925        1.90017
N         -0.77943       -1.44037        2.89734
H         -0.86111       -1.18066        3.87450
H         -0.18123       -2.22097        2.65372
H         -2.67044        0.08089        3.37095
N         -1.35499       -1.09407        0.68410
C         -1.24194       -0.21459       -1.52282
C          0.17880       -0.45813       -0.93994
C         -0.11303       -1.57131        0.06969
O         -1.47504       -1.11739       -2.56265
H          0.68249       -1.69539        0.81247
H         -0.29023       -2.54191       -0.41488
H         -2.77885        3.04439        0.89917
H         -2.13140        2.64674        2.51839
O         -0.98859        1.99441        0.94431
C         -0.50559        2.70938       -0.07877
O         -1.01684        3.73025       -0.47558
C         -3.29997        0.42604        0.09481
C         -2.26172       -0.64244       -0.36214
N         -3.12080       -1.73045       -0.79171
C         -4.41424       -1.46958       -0.59513
N         -4.56051       -0.29240        0.00494
H         -3.29815        1.26069       -0.61872
N         -5.39897       -2.27289       -0.94166
H         -2.78300       -2.47722       -1.38904
H         -5.45927        0.15333        0.15579
H         -6.36312       -1.99879       -0.78736
H         -5.20137       -3.16683       -1.37746
H          0.77435       -0.83993       -1.77951
C          0.77284        2.11849       -0.60691
C          1.01059        0.65216       -0.22542
H          1.58004        2.72272       -0.15998
H          0.78031        0.58993        0.84518
H          0.80534        2.30204       -1.68798
C          3.19821       -0.13609        0.77284
C          2.48531        0.30349       -0.36075
C          3.13596        0.41538       -1.59366
C          4.49689        0.10580       -1.74978
H          2.71218       -0.23691        1.74514
H          2.57307        0.75364       -2.46727
H          4.99783        0.19356       -2.71460
O         -1.41076        1.08315       -1.96449
H         -0.79736       -0.97739       -3.23814
H         -2.20206        1.12043       -2.52176
C          5.17213       -0.31754       -0.62352
C          4.53493       -0.43636        0.60730
O          5.42685       -0.90628        1.53013
C          6.70235       -0.83770        0.90357
O          6.47543       -0.71163       -0.49415
H          7.24755        0.04953        1.27209
H          7.26462       -1.75812        1.10697
