55
M6_hydrate_4_solv.log	Energy: -952638.0742971
C          3.49049       -0.55667       -1.32984
N          3.98987       -1.07051       -0.06432
C          3.17591       -1.15976        0.98759
C          2.61954       -1.54267       -2.11131
H          4.37006       -0.37609       -1.95961
N          3.45248       -1.94751        2.01056
H          4.22642       -2.60182        1.95279
H          2.93348       -1.88392        2.87979
H          4.85971       -1.59453       -0.05371
N          2.05163       -0.42545        0.95690
C          0.34317        0.98652        0.05727
C         -0.27221       -0.06605        1.04326
C          0.91995       -0.59497        1.85305
O         -0.04229        2.23734        0.51633
H          0.81039       -1.65307        2.12161
H          1.06844       -0.01389        2.77681
H          2.66229       -1.28256       -3.17519
H          2.97804       -2.56993       -1.97227
O          1.23270       -1.45574       -1.76982
C          0.65469       -2.31523       -0.90843
O          1.26028       -3.19592       -0.35075
C          2.79953        0.79477       -1.10000
C          1.94039        0.80803        0.20257
N          2.51301        1.92159        0.93609
C          3.51545        2.50677        0.27183
N          3.75361        1.86207       -0.86558
H          2.18095        1.04085       -1.97329
N          4.16938        3.56892        0.69407
H          2.04242        2.34782        1.72844
H          4.44334        2.15511       -1.54940
H          4.91500        3.96681        0.13329
H          3.93783        3.99347        1.58556
H         -0.90161        0.51963        1.72259
C         -0.80739       -1.99267       -0.75564
C         -1.19142       -1.21257        0.53011
H         -1.34420       -2.95043       -0.72431
H         -1.15354       -1.94890        1.34446
H         -1.14415       -1.45363       -1.64922
C         -3.03055        0.34495       -0.31751
C         -2.64976       -0.79249        0.42823
C         -3.62299       -1.55506        1.07764
C         -4.99073       -1.22948        1.02558
H         -2.29472        0.95258       -0.84387
H         -3.31481       -2.43250        1.65146
H         -5.74303       -1.83270        1.53512
O         -0.05929        0.91102       -1.27122
H          0.30965        2.90747       -0.08919
H          0.30018        0.11596       -1.69891
C         -5.33298       -0.10736        0.30380
C         -4.37081        0.65894       -0.35077
O         -4.99055        1.68547       -1.00806
C         -6.33023        1.69481       -0.53155
O         -6.56872        0.42748        0.06758
H         -6.44776        2.49030        0.22596
H         -7.02145        1.84414       -1.37069
