55
M6_hydrate_11_solv.log	Energy: -952639.0283311
C          3.55019       -1.02139       -1.09757
N          3.88600       -1.43572        0.25929
C          2.97105       -1.34275        1.22735
C          2.65512       -2.01518       -1.85315
H          4.49811       -0.98356       -1.64661
N          3.03099       -2.08801        2.31513
H          3.70474       -2.84438        2.38006
H          2.44534       -1.89037        3.11915
H          4.64022       -2.10553        0.38154
N          1.98037       -0.45633        1.04717
C          0.64066        1.22695        0.02992
C         -0.23758        0.30473        0.93879
C          0.78451       -0.36042        1.86769
O          0.64071        2.53892        0.50235
H          0.47136       -1.35844        2.19757
H          0.97858        0.25784        2.75868
H          2.91112       -1.97923       -2.91831
H          2.80401       -3.03693       -1.48083
O          1.28124       -1.64512       -1.79312
C          0.46101       -2.16069       -0.87475
O          0.78527       -3.03114       -0.09826
C          2.95914        0.40111       -1.09215
C          2.15083        0.70962        0.20720
N          2.98951        1.70271        0.86078
C          3.96410        2.13524        0.04871
N          3.98442        1.42725       -1.07450
H          2.31989        0.52150       -1.97308
N          4.78344        3.12460        0.33754
H          2.60091        2.30348        1.58179
H          4.71493        1.49798       -1.77509
H          5.50295        3.40486       -0.32015
H          4.70216        3.61351        1.22239
H         -0.84122        0.98416        1.55279
C         -0.88746       -1.50021       -0.93586
C         -1.25932       -0.70461        0.33704
H         -1.63135       -2.30348       -1.04389
H         -1.37877       -1.45688        1.13002
H         -0.93610       -0.86144       -1.82218
C         -3.75798       -0.87964        0.52784
C         -2.64450       -0.10250        0.14002
C         -2.84453        1.15726       -0.42993
C         -4.13093        1.69213       -0.62576
H         -3.63186       -1.86461        0.98175
H         -1.98291        1.74675       -0.74587
H         -4.27647        2.68114       -1.06193
O          0.21790        1.18688       -1.28805
H         -0.27732        2.84299        0.53770
H          0.59212        1.95190       -1.74897
C         -5.19878        0.91071       -0.24156
C         -5.01251       -0.34925        0.32096
O         -6.23005       -0.88094        0.64114
C         -7.19521       -0.02987        0.03488
O         -6.53688        1.18969       -0.28310
H         -7.57259       -0.49992       -0.89062
H         -8.01355        0.16334        0.74029
