55
M6_hydrate_21_solv.log	Energy: -952636.7635616
C         -2.25324        0.76860       -1.87229
N         -3.19525        1.39264       -0.95255
C         -3.00868        1.33436        0.36908
C         -0.96734        1.56033       -2.08632
H         -2.74399        0.72939       -2.85303
N         -3.60722        2.19032        1.17991
H         -4.09194        2.99694        0.79965
H         -3.61666        2.04456        2.18329
H         -3.83708        2.09144       -1.31391
N         -2.18612        0.38777        0.84620
C         -0.45496       -1.24814        0.70317
C         -0.15539       -0.21089        1.84880
C         -1.54002        0.37458        2.15498
O         -0.52099       -2.54104        1.24017
H         -1.51061        1.38163        2.58625
H         -2.09838       -0.27382        2.84798
H         -0.39193        1.09098       -2.89292
H         -1.19538        2.59834       -2.35717
O         -0.13187        1.51906       -0.93105
C         -0.20791        2.50570       -0.03975
O         -0.86068        3.50989       -0.21849
C         -1.98827       -0.67168       -1.43175
C         -1.88146       -0.83041        0.11410
N         -2.87996       -1.84807        0.38393
C         -3.51807       -2.24359       -0.72084
N         -3.09241       -1.55189       -1.77167
H         -1.06571       -1.02690       -1.90362
N         -4.43913       -3.18520       -0.75392
H         -2.92268       -2.35487        1.26181
H         -3.39870       -1.71988       -2.72392
H         -4.88039       -3.43831       -1.63117
H         -4.72594       -3.65332        0.09853
H          0.15757       -0.81285        2.71061
C          0.59236        2.26681        1.20954
C          0.97694        0.85830        1.69468
H          0.03128        2.78545        1.99797
H          1.24250        1.05591        2.74448
H          1.51292        2.86242        1.09470
C          2.82779        0.80119       -0.09139
C          2.25676        0.28536        1.09101
C          2.88024       -0.78556        1.74385
C          4.05098       -1.39007        1.25357
H          2.37882        1.62201       -0.64846
H          2.44552       -1.17482        2.66738
H          4.51977       -2.22866        1.76947
O          0.42435       -1.30052       -0.35681
H         -0.74493       -2.51051        2.17891
H          1.30775       -1.49447       -0.01212
C          4.58172       -0.86709        0.09436
C          3.98039        0.20587       -0.55617
O          4.69018        0.49879       -1.68564
C          5.88887       -0.26264       -1.60137
O          5.67968       -1.26542       -0.61425
H          6.09685       -0.73437       -2.57048
H          6.72244        0.39245       -1.29244
