55
M6_hydrate_10_solv.log	Energy: -952639.6784309
C         -3.48472        1.00581       -1.19916
N         -3.94805        1.34586        0.14052
C         -3.09983        1.26068        1.16780
C         -2.55605        2.05844       -1.82370
H         -4.37941        0.97057       -1.83146
N         -3.27514        1.95762        2.27446
H         -3.98786        2.67890        2.31819
H         -2.73089        1.76497        3.10823
H         -4.74744        1.96637        0.22920
N         -2.05255        0.43316        1.02331
C         -0.58333       -1.17565        0.05120
C          0.18810       -0.28396        1.08004
C         -0.91120        0.37503        1.92174
O         -0.44916       -2.49457        0.49000
H         -0.64338        1.38636        2.25238
H         -1.14939       -0.23309        2.80877
H         -2.71655        2.06969       -2.90793
H         -2.76996        3.05553       -1.41725
O         -1.18173        1.72488       -1.65903
C         -0.45060        2.22896       -0.66247
O         -0.85734        3.06559        0.11215
C         -2.85963       -0.40060       -1.19772
C         -2.11511       -0.71300        0.13974
N         -2.94113       -1.76287        0.71245
C         -3.87471       -2.18958       -0.14938
N         -3.86350       -1.44795       -1.25055
H         -2.17249       -0.49371       -2.04412
N         -4.68391       -3.20302        0.07848
H         -2.59460       -2.34811        1.46728
H         -4.55416       -1.52357       -1.98993
H         -5.37193       -3.47644       -0.61494
H         -4.62934       -3.71375        0.95310
H          0.72298       -0.97691        1.73850
C          0.92253        1.61504       -0.65275
C          1.25375        0.72343        0.57543
H          1.63200        2.45483       -0.65178
H          1.38582        1.41250        1.42336
H          1.06170        1.05461       -1.58196
C          3.74063        0.96055        0.30796
C          2.62363        0.09267        0.33882
C          2.81494       -1.27608        0.13760
C          4.08764       -1.82930       -0.10938
H          3.63261        2.03426        0.47369
H          1.97643       -1.97245        0.19691
H          4.21949       -2.90045       -0.26553
O         -0.19715       -1.06337       -1.27405
H         -0.84544       -3.07931       -0.17390
H          0.73522       -1.30817       -1.35708
C          5.15234       -0.95956       -0.13826
C          4.97766        0.40798        0.07090
O          6.18742        1.03213       -0.02408
C          7.16099       -0.00492       -0.06445
O          6.47420       -1.21133       -0.37316
H          7.89978        0.21151       -0.84668
H          7.64471       -0.09607        0.92391
