55
M6_hydrate_29_solv.log	Energy: -952641.3349116
C          2.99699       -1.04209       -1.45772
N          3.80122       -1.33212       -0.28246
C          3.31305       -1.06895        0.93296
C          1.86905       -2.05522       -1.64520
H          3.64654       -1.12769       -2.33746
N          3.76893       -1.71604        1.99481
H          4.40873       -2.49491        1.87844
H          3.57938       -1.38391        2.93391
H          4.56526       -1.99611       -0.35946
N          2.34907       -0.14567        1.06593
C          0.42464        0.93165        0.14713
C          0.05713        0.28815        1.51469
C          1.37977       -0.15318        2.15689
O          0.11273        2.28756        0.09620
H          1.32153       -1.15789        2.59401
H          1.68705        0.54330        2.94988
H          1.19644       -1.73812       -2.45319
H          2.29362       -3.03658       -1.89987
O          1.16223       -2.16652       -0.41735
C         -0.15847       -2.35364       -0.40800
O         -0.78251       -2.66789       -1.39625
C          2.52876        0.40943       -1.37923
C          2.00150        0.81112        0.02613
N          2.66898        2.07937        0.24320
C          3.58116        2.33668       -0.69511
N          3.62129        1.34643       -1.58772
H          1.75213        0.57041       -2.13723
N          4.33507        3.41625       -0.72660
H          2.42210        2.71832        0.99125
H          4.10958        1.42282       -2.47406
H          4.99401        3.56025       -1.48390
H          4.26070        4.11357        0.00580
H         -0.32843        1.11752        2.11765
C         -0.71224       -2.19539        0.98664
C         -1.06234       -0.78443        1.52120
H          0.03469       -2.63426        1.66297
H         -1.21918       -0.97141        2.59593
H         -1.61342       -2.81894        1.05399
C         -3.07674       -0.73938       -0.08307
C         -2.38639       -0.20427        1.02395
C         -2.93910        0.88110        1.71477
C         -4.15479        1.47810        1.34018
H         -2.68395       -1.57270       -0.66483
H         -2.42004        1.28070        2.58936
H         -4.56772        2.32614        1.88769
O         -0.21001        0.25181       -0.88354
H         -0.82835        2.37996        0.30723
H         -0.25528        0.83146       -1.65613
C         -4.80363        0.93430        0.25262
C         -4.27248       -0.15110       -0.43547
O         -5.09732       -0.46321       -1.48180
C         -6.28628        0.28737       -1.27090
O         -5.96994        1.32196       -0.34814
H         -6.62089        0.72627       -2.21955
H         -7.06550       -0.36689       -0.84034
