55
M6_hydrate_8_solv.log	Energy: -952639.5610302
C          3.69868       -0.78911       -0.89909
N          4.03706       -0.95325        0.50985
C          3.06117       -0.92588        1.42118
C          3.01010       -2.01516       -1.51935
H          4.65055       -0.66746       -1.42864
N          3.18830       -1.51330        2.59583
H          3.98542       -2.11365        2.78220
H          2.52051       -1.34718        3.34110
H          4.89173       -1.45061        0.74279
N          1.93668       -0.27395        1.08670
C          0.39253        1.04471       -0.16701
C         -0.36719        0.10238        0.81925
C          0.69315       -0.32528        1.83894
O          0.03105        2.34652        0.18307
H          0.52782       -1.34055        2.22105
H          0.72887        0.37145        2.69170
H          3.31567       -2.09873       -2.56867
H          3.29442       -2.93222       -0.98704
O          1.59501       -1.86762       -1.55821
C          0.80401       -2.40148       -0.62288
O          1.20426       -3.11782        0.26642
C          2.88708        0.50459       -1.09724
C          1.95229        0.80393        0.11880
N          2.56160        1.99747        0.68260
C          3.52404        2.49011       -0.10852
N          3.73641        1.68163       -1.14043
H          2.30068        0.42990       -2.01773
N          4.16099        3.61947        0.11901
H          2.07013        2.57068        1.36234
H          4.49396        1.79917       -1.80509
H          4.88480        3.93890       -0.51549
H          3.93150        4.17987        0.93254
H         -1.08371        0.74504        1.34210
C         -0.62018       -1.97568       -0.84860
C         -1.21353       -1.08256        0.25940
H         -1.22867       -2.89092       -0.89640
H         -1.34611       -1.73274        1.13650
H         -0.65951       -1.48686       -1.82483
C         -3.51643       -0.38278        0.96643
C         -2.61711       -0.60065       -0.10361
C         -3.02932       -0.33138       -1.41018
C         -4.31728        0.15753       -1.70583
H         -3.22540       -0.58339        1.99943
H         -2.35506       -0.50459       -2.25028
H         -4.62418        0.36488       -2.73152
O          0.17570        0.82766       -1.51824
H          0.46176        2.95879       -0.43229
H         -0.75400        1.01438       -1.71154
C         -5.16853        0.35954       -0.64417
C         -4.77193        0.09243        0.66545
O         -5.79689        0.39847        1.51349
C         -6.93017        0.63534        0.68644
O         -6.44721        0.84028       -0.63540
H         -7.59321       -0.24747        0.70616
H         -7.45880        1.53330        1.03132
