55
M6_hydrate_5_solv.log	Energy: -952638.4158568
C         -3.49911        1.00239       -1.20312
N         -3.88769        1.45094        0.12573
C         -3.03683        1.31795        1.14434
C         -2.49785        1.91961       -1.90903
H         -4.40750        1.02306       -1.81703
N         -3.15163        2.03796        2.24471
H         -3.81207        2.80750        2.28736
H         -2.61459        1.81443        3.07544
H         -4.65404        2.11140        0.21656
N         -2.04276        0.42675        0.99987
C         -0.60876       -1.15284       -0.07785
C          0.19002       -0.31656        0.98019
C         -0.88214        0.32814        1.86942
O         -0.43410       -2.48964        0.25070
H         -0.59497        1.32589        2.22369
H         -1.10862       -0.30068        2.74487
H         -2.60209        1.78779       -2.99211
H         -2.68175        2.96941       -1.64944
O         -1.13772        1.57456       -1.62757
C         -0.41204        2.23656       -0.70550
O         -0.85521        3.14087       -0.04269
C         -3.01267       -0.45215       -1.13730
C         -2.15116       -0.73002        0.13347
N         -2.89317       -1.79569        0.78224
C         -3.96577       -2.16857        0.07404
N         -4.10580       -1.39525       -0.99708
H         -2.44258       -0.68503       -2.04606
N         -4.76370       -3.16122        0.40639
H         -2.47429       -2.38250        1.49751
H         -4.84424       -1.50111       -1.68449
H         -5.55725       -3.40169       -0.17769
H         -4.59098       -3.69369        1.25211
H          0.72058       -1.05693        1.58942
C          0.98199        1.67417       -0.64248
C          1.27573        0.69895        0.53389
H          1.66068        2.53070       -0.53273
H          1.40133        1.33876        1.41932
H          1.20914        1.19282       -1.60112
C          3.77689        0.88265        0.52616
C          2.64250        0.07347        0.28840
C          2.80981       -1.23139       -0.17816
C          4.08368       -1.77983       -0.42021
H          3.67782        1.90268        0.90302
H          1.93959       -1.86199       -0.35872
H          4.20349       -2.80501       -0.77250
O         -0.20977       -1.01150       -1.40146
H         -0.88310       -3.03246       -0.41485
H         -0.44620       -0.13272       -1.74090
C          5.17029       -0.96710       -0.18701
C          5.01595        0.33762        0.27665
O          6.24922        0.89504        0.46297
C          7.17813       -0.00909       -0.12332
O          6.50323       -1.24834       -0.29857
H          7.50187        0.37891       -1.10523
H          8.03566       -0.14567        0.54819
