45
M3_hydrate_5_solv.log	Energy: -714009.0924892
C         -1.12205        1.80947       -0.95463
N         -1.37078        2.16521        0.43716
C         -0.66775        1.57102        1.41118
C          0.15077        2.47254       -1.48328
H         -1.93911        2.23655       -1.55020
N         -0.46038        2.17240        2.56872
H         -0.71623        3.14781        2.68678
H         -0.09510        1.66681        3.36829
H         -1.72087        3.10151        0.62162
N         -0.19365        0.33931        1.16827
C          0.30069       -1.69234        0.00663
C          1.42286       -1.34681        1.03884
C          0.71789       -0.41417        2.02451
O          0.67766       -1.90451       -1.31079
H          1.41321        0.26188        2.53783
H          0.15225       -0.97399        2.78565
H          0.33886        2.17528       -2.52228
H          0.03496        3.56111       -1.43153
O          1.27037        2.16501       -0.65113
C          1.99711        1.08632       -0.92846
O          1.88170        0.47712       -1.97664
C         -1.19903        0.27870       -1.12920
C         -0.79066       -0.50560        0.15626
N         -2.07040       -1.02811        0.61112
C         -3.02367       -0.87783       -0.31739
N         -2.56564       -0.16497       -1.34084
H         -0.58283       -0.02001       -1.98363
N         -4.24003       -1.37049       -0.21919
H         -2.11171       -1.76346        1.31124
H         -3.15411        0.19041       -2.08734
H         -4.91698       -1.21782       -0.95905
H         -4.50824       -1.91406        0.59396
H          1.63613       -2.30130        1.53538
C          2.89790        0.68306        0.19559
C          2.81056       -0.80775        0.59902
H          2.69745        1.33867        1.05205
H          3.37621       -0.83827        1.54358
H          3.93113        0.88448       -0.12965
C          3.56419       -1.73776       -0.35563
H          3.46866       -2.78334       -0.02691
H          3.21980       -1.67820       -1.39496
H          4.63337       -1.47851       -0.35034
O         -0.26658       -2.88301        0.45142
H          1.21344       -1.17004       -1.65821
H         -0.92204       -3.16905       -0.20251
