45
M3_hydrate_13_solv.log	Energy: -714005.8328976
C          0.62244       -1.88999       -1.03936
N          0.59738       -2.35500        0.33910
C          0.22851       -1.54458        1.33993
C         -0.77213       -1.80109       -1.63964
H          1.18805       -2.62270       -1.62821
N         -0.25025       -2.05756        2.46495
H         -0.45308       -3.04987        2.52365
H         -0.33081       -1.49677        3.30507
H          0.52195       -3.35484        0.50097
N          0.36305       -0.22216        1.19447
C          0.20286        1.69750       -0.22069
C         -0.93865        1.70980        0.84741
C         -0.36787        0.80096        1.94142
O         -0.26616        1.74223       -1.52144
H          0.33145        1.34809        2.59076
H         -1.13702        0.35490        2.58138
H         -0.71583       -1.52051       -2.70065
H         -1.30249       -2.75780       -1.54562
O         -1.44519       -0.78545       -0.91420
C         -2.69622       -0.94107       -0.49405
O         -3.42562       -1.82061       -0.89206
C          1.36373       -0.55659       -1.11066
C          1.08398        0.39446        0.09073
N          2.43007        0.74474        0.50953
C          3.36757        0.09866       -0.18531
N          2.80419       -0.73732       -1.05277
H          1.08788       -0.05043       -2.04467
N          4.66491        0.26443       -0.02397
H          2.62075        1.54882        1.09729
H          3.32379       -1.24739       -1.75927
H          5.32297       -0.24363       -0.60471
H          5.01541        0.90230        0.68186
H         -0.92610        2.74080        1.22455
C         -3.02972        0.04195        0.58875
C         -2.44650        1.46415        0.53604
H         -2.73089       -0.47021        1.51981
H         -2.91788        1.93674        1.41292
H         -4.12522        0.11453        0.62951
C         -2.97184        2.22679       -0.68094
H         -2.71931        1.72580       -1.62469
H         -4.06785        2.30663       -0.62112
H         -2.55901        3.24573       -0.72064
O          1.06499        2.77610        0.01000
H          0.46251        2.03708       -2.08655
H          0.54420        3.58892       -0.05091
