45
M3_hydrate_14_solv.log	Energy: -714010.2524781
C         -0.99300        1.79119       -1.06694
N         -1.23756        2.26927        0.28383
C         -0.76173        1.58086        1.32801
C          0.44942        2.04683       -1.51026
H         -1.63891        2.36085       -1.74625
N         -0.53544        2.18719        2.48404
H         -0.62250        3.19566        2.55348
H         -0.38932        1.65563        3.33464
H         -1.44346        3.25410        0.42130
N         -0.52017        0.26985        1.19233
C          0.25279       -1.49492       -0.21295
C          1.16426       -1.39581        1.04821
C          0.40693       -0.48599        2.02811
O          0.95259       -1.09671       -1.34378
H         -0.14833       -1.07365        2.77344
H          1.07324        0.19909        2.56680
H          0.67312        1.50968       -2.44170
H          0.59774        3.12351       -1.67482
O          1.30516        1.62310       -0.46250
C          2.47395        1.02401       -0.70601
O          2.99718        1.00493       -1.79628
C         -1.43063        0.33083       -1.14968
C         -0.97273       -0.52547        0.06228
N         -2.18681       -1.24610        0.39363
C         -3.24279       -0.78935       -0.28145
N         -2.87740        0.19641       -1.10098
H         -1.05126       -0.09779       -2.08526
N         -4.47103       -1.24689       -0.15050
H         -2.21403       -2.02811        1.03892
H         -3.48447        0.56607       -1.82511
H         -5.22156       -0.87108       -0.71958
H         -4.67404       -1.98644        0.51324
H          1.16937       -2.40921        1.47029
C          3.02656        0.43621        0.56337
C          2.66062       -1.03634        0.87074
H          2.69969        1.07945        1.39202
H          3.06570       -1.18439        1.88523
H          4.12207        0.49703        0.50352
C          3.40917       -2.01854       -0.03290
H          3.10575       -3.05464        0.18375
H          3.22716       -1.82862       -1.09758
H          4.49215       -1.94156        0.14622
O         -0.27620       -2.77023       -0.39316
H          0.50903       -1.45452       -2.12518
H          0.46493       -3.38914       -0.46107
