33
dc-STX_ketone_solv.log	Energy: -521662.9158589
C         -0.43024       -1.60820       -1.06907
N         -0.77084       -1.95343        0.30521
C         -1.04215       -1.00526        1.20454
C         -1.64352       -1.17404       -1.87749
H         -0.02213       -2.50948       -1.54328
N         -1.79485       -1.27799        2.25907
H         -2.25511       -2.17928        2.33232
H         -1.83179       -0.65162        3.05548
H         -1.12807       -2.88664        0.48639
N         -0.53167        0.22861        1.04130
C         -0.14716        1.87521       -0.57458
C         -1.13021        2.44014        0.40963
C         -1.17793        1.44448        1.56828
O          0.20185        2.33669       -1.62754
H         -0.80686        3.44557        0.71271
H         -2.10068        2.53754       -0.09729
H         -2.20633        1.21242        1.86785
H         -0.63150        1.81193        2.44780
H         -2.38461       -1.99159       -1.86748
H         -1.32333       -1.01784       -2.92161
O         -2.16749        0.00423       -1.31004
C          0.66270       -0.54781       -1.05599
C          0.42193        0.55193       -0.00241
N          1.76316        0.76661        0.51848
C          2.57755       -0.24550        0.17925
N          1.96057       -1.07263       -0.66124
H          0.73075       -0.07353       -2.04682
N          3.80962       -0.38474        0.61713
H          1.95392        1.38866        1.29947
H          2.44427       -1.79189       -1.18994
H          4.38382       -1.15771        0.29791
H          4.19812        0.28326        1.27418
H         -2.89301        0.32210       -1.85971
