33
dc-STX_ketone_3_solv.log	Energy: -521662.9839091
C         -0.43492       -1.56694       -1.13233
N         -0.76204       -1.97272        0.22876
C         -1.00049       -1.07854        1.18759
C         -1.65306       -1.10339       -1.93189
H         -0.02492       -2.44808       -1.64271
N         -1.68632       -1.41459        2.26927
H         -2.12507       -2.32772        2.32831
H         -1.69101       -0.82123        3.09151
H         -1.05592       -2.93150        0.38910
N         -0.53331        0.17598        1.04736
C         -0.18088        1.90139       -0.49102
C         -1.19370        2.38583        0.50785
C         -1.17982        1.35971        1.64041
O          0.17957        2.43357       -1.50578
H         -0.93816        3.40298        0.83388
H         -2.16852        2.42835        0.00063
H         -2.18985        1.09767        1.97567
H         -0.60305        1.71346        2.50639
H         -2.41899       -1.89432       -1.90859
H         -1.33499       -0.97433       -2.97694
O         -2.16839        0.13197       -1.48839
C          0.65052       -0.49952       -1.08626
C          0.40644        0.55710        0.01117
N          1.74914        0.76432        0.53041
C          2.57021       -0.22709        0.14969
N          1.95476       -1.02836       -0.71682
H          0.71058        0.01148       -2.05926
N          3.80598       -0.37127        0.57540
H          1.94118        1.36307        1.32903
H          2.44186       -1.72168       -1.27617
H          4.38548       -1.12605        0.22389
H          4.19265        0.27589        1.25406
H         -2.81401       -0.01714       -0.78744
