59
ZTX_ketone_256_solv.log	Energy: -1435164.6957302
C         -1.69520        0.94215       -0.50508
N         -1.76492        0.85848        0.93410
C         -0.89691        0.13627        1.64104
C         -0.83519        2.04785       -1.16513
H         -2.69544        1.21398       -0.85458
N         -0.91656        0.16977        2.96001
H         -1.53587        0.81420        3.44260
H         -2.66971        1.07348        1.37365
N          0.04124       -0.58208        0.99029
C          1.29824       -0.74101       -0.96753
C          2.22737       -0.35630        0.20030
C          1.41833       -0.74149        1.45543
O          1.58492       -0.79624       -2.12763
H          1.61922       -0.06297        2.29334
H          1.61260       -1.76879        1.78509
O         -1.36661        2.73575       -2.01488
C         -1.29478       -0.39920       -1.12429
C         -0.10472       -1.02962       -0.38955
N         -0.42235       -2.43478       -0.47299
C         -1.72863       -2.62128       -0.67997
N         -2.31635       -1.45240       -1.01103
H         -1.03683       -0.25528       -2.18480
N         -2.32453       -3.78622       -0.58826
H          0.25892       -3.15182       -0.22017
C         -3.71786       -1.21213       -1.12268
H         -3.30365       -3.90731       -0.82485
C          2.53138        1.15087        0.15644
O         -4.16019       -0.68817        0.12637
H         -3.90963       -0.48829       -1.92588
H         -4.25551       -2.13947       -1.35618
C         -5.27919        0.04202        0.11953
O         -6.06100        0.09583       -0.80664
N         -5.47786        0.68157        1.30702
H         -6.16640        1.43146        1.29994
O         -4.40119        0.93839        2.12186
H         -4.44179        0.29654        2.84774
H          3.20804        1.35686        0.99535
H          3.08385        1.34972       -0.77297
N          0.53063        2.03747       -0.99097
C          1.32380        2.08364        0.24803
C          1.65649        3.59448        0.29905
C          1.73862        3.97146       -1.18311
O          1.20158        2.84443       -1.89691
H          0.69614        1.85584        1.11328
C          2.84227        4.02896        1.14341
H          0.77043        4.07627        0.73702
H          1.15069        4.87058       -1.41769
H          2.77118        4.10098       -1.53066
O          4.05767        3.66486        0.52733
H          2.78394        5.12408        1.27551
H          2.74640        3.57552        2.14670
H          4.77769        3.93668        1.10720
O          3.47989       -0.98938        0.07706
S          3.58228       -2.65605        0.20563
O          3.78710       -2.90874        1.63377
O          2.28147       -3.14062       -0.30129
O          4.72639       -2.94766       -0.64915
H         -1.79084       -4.59997       -0.29776
H         -0.37937       -0.49590        3.50636
