59
ZTX_ketone_247_solv.log	Energy: -1435165.7917069
C         -1.70803        0.82948       -0.59732
N         -1.74256        0.84557        0.84508
C         -0.83688        0.20654        1.58343
C         -0.91529        1.92247       -1.35323
H         -2.72845        1.02627       -0.94029
N         -0.83783        0.33455        2.89683
H         -1.46850        0.99440        3.34225
H         -2.64498        1.06204        1.28835
N          0.11649       -0.52434        0.96893
C          1.35008       -0.73837       -1.00008
C          2.27585       -0.23775        0.12648
C          1.50703       -0.58815        1.41684
O          1.62033       -0.84349       -2.16061
H          1.68623        0.14847        2.20947
H          1.75850       -1.58319        1.80179
O         -1.48670        2.50811       -2.25268
C         -1.25782       -0.53234       -1.12885
C         -0.02801       -1.06016       -0.38015
N         -0.28242       -2.48095       -0.37731
C         -1.58512       -2.73584       -0.53247
N         -2.23018       -1.61556       -0.91912
H         -1.02561       -0.45283       -2.20221
N         -2.12739       -3.91631       -0.35034
H          0.43127       -3.14974       -0.08613
C         -3.64117       -1.43351       -1.01261
H         -3.10883       -4.08861       -0.54282
C          2.49729        1.27793       -0.00546
O         -4.07496       -0.84096        0.20837
H         -3.87447       -0.77211       -1.85772
H         -4.14921       -2.39266       -1.17052
C         -5.23159       -0.17259        0.18256
O         -6.03708       -0.22515       -0.72311
N         -5.43676        0.53674        1.32907
H         -6.16440        1.24761        1.28644
O         -4.35468        0.91229        2.08925
H         -4.33650        0.32227        2.85837
H          3.15359        1.56122        0.82805
H          3.04112        1.45423       -0.94536
N          0.44679        2.00402       -1.18472
C          1.24511        2.15440        0.03974
C          1.53471        3.67283       -0.00858
C          1.59796        3.95521       -1.51048
O          1.07513        2.77694       -2.14826
H          0.63422        1.95744        0.92368
C          2.75513        4.13839        0.75749
H          0.65002        4.16972        0.41646
H          0.99523        4.82822       -1.79818
H          2.62624        4.08148       -1.87792
O          2.59018        3.77332        2.11123
H          3.66806        3.69032        0.32647
H          2.84786        5.23351        0.64314
H          3.40440        3.98554        2.58161
O          3.55804       -0.81064        0.01876
S          3.74509       -2.46164        0.23561
O          4.88751       -2.74437       -0.62436
O          3.98606       -2.62538        1.67098
O          2.46080       -3.03383       -0.21873
H         -1.55310       -4.68774       -0.02424
H         -0.25961       -0.26171        3.48010
