59
ZTX_ketone_229_solv.log	Energy: -1435165.7440914
C         -1.07266        1.57096        1.09131
N         -0.43601        1.31275        2.36031
C          0.41374        0.30533        2.55341
C         -0.33582        2.43846        0.04101
H         -1.96738        2.16687        1.29449
N          1.13472        0.23547        3.65623
H          1.12083        1.00093        4.32395
H         -0.64146        1.93313        3.13866
N          0.56052       -0.62071        1.58223
C          0.54517       -0.87920       -0.74161
C          1.99762       -0.96557       -0.23852
C          1.84411       -1.25329        1.26931
O          0.17520       -0.86200       -1.87893
H          2.65106       -0.79572        1.85357
H          1.81951       -2.32624        1.49194
O         -0.92825        3.38644       -0.43132
C         -1.48982        0.26458        0.42032
C         -0.38794       -0.80045        0.48903
N         -1.15919       -2.01099        0.61965
C         -2.41072       -1.75553        1.00006
N         -2.61852       -0.41922        1.06892
H         -1.72986        0.45091       -0.63831
N         -3.30025       -2.68201        1.26573
H         -0.73890       -2.93071        0.47735
C         -3.92057        0.16338        1.22787
H         -4.27132       -2.45758        1.45766
C          2.72362        0.36517       -0.49825
O         -4.70258        0.07967        0.05005
H         -4.47137       -0.38818        1.99737
H         -3.81464        1.20381        1.55272
C         -4.57179        1.07895       -0.84146
O         -3.82367        2.02758       -0.70347
N         -5.33423        0.88823       -1.94145
H         -5.47007        1.68668       -2.55816
O         -6.35823       -0.02032       -1.92695
H         -6.04856       -0.77969       -2.44327
H          3.74301        0.23578       -0.10994
H          2.79030        0.49814       -1.58829
N          0.82794        1.95186       -0.52237
C          2.10077        1.61011        0.13403
C          2.89911        2.91006       -0.10847
C          2.33320        3.41132       -1.44089
O          1.17208        2.60197       -1.69700
H          1.95696        1.49504        1.21131
C          4.41652        2.78993       -0.08957
H          2.60635        3.60888        0.69046
H          2.04103        4.47036       -1.40275
H          3.02087        3.25063       -2.28313
O          5.03030        4.04074       -0.31325
H          4.74220        2.34294        0.86701
H          4.75833        2.12904       -0.89991
H          4.79125        4.62479        0.41704
O          2.72693       -1.93073       -0.95964
S          2.30414       -3.54852       -0.84623
O          3.09650       -4.06307        0.27301
O          0.85025       -3.52632       -0.58208
O          2.68499       -4.04542       -2.16217
H         -3.03056       -3.66056        1.22570
H          1.65567       -0.60430        3.88798
