59
ZTX_ketone_79_solv.log	Energy: -1435169.8489321
C         -1.33956        1.47679       -0.40194
N         -1.33702        1.40443        1.03901
C         -0.57770        0.54674        1.71750
C         -0.30781        2.37884       -1.12117
H         -2.29183        1.93117       -0.69432
N         -0.45819        0.63958        3.02750
H         -0.85739        1.42999        3.52518
H         -1.96142        2.01956        1.55378
N          0.11067       -0.39441        1.03798
C          1.18844       -0.84364       -0.98472
C          2.24782       -0.64775        0.11528
C          1.45415       -0.82881        1.42461
O          1.38446       -0.97851       -2.15708
H          1.84697       -0.19310        2.22741
H          1.45042       -1.86697        1.77544
O         -0.72537        3.18196       -1.93078
C         -1.25478        0.07916       -1.01584
C         -0.20892       -0.80600       -0.32462
N         -0.84661       -2.10055       -0.36850
C         -2.16643       -1.98159       -0.54284
N         -2.48045       -0.70599       -0.86203
H         -1.01054        0.16119       -2.08758
N         -3.03191       -2.96127       -0.44651
H         -0.35962       -2.93947       -0.05352
C         -3.72668       -0.27443       -1.43194
H         -4.02846       -2.72619       -0.38038
C          2.86034        0.75913        0.01334
O         -4.54379        0.39594       -0.49030
H         -3.51689        0.46116       -2.21591
H         -4.25906       -1.12594       -1.87282
C         -5.33857       -0.36143        0.27859
O         -5.42673       -1.57617        0.19423
N         -6.01289        0.36045        1.19665
H         -6.79254       -0.08894        1.67307
O         -6.09445        1.72107        1.08395
H         -5.48009        2.08167        1.74118
H          3.59913        0.82523        0.82304
H          3.39445        0.82283       -0.94622
N          1.02883        2.04660       -1.04390
C          1.88727        1.93024        0.14465
C          2.56338        3.32130        0.13191
C          2.63790        3.64512       -1.36127
O          1.80212        2.67126       -2.01008
H          1.28188        1.85815        1.05103
C          3.89351        3.41855        0.84908
H          1.85864        4.01250        0.61755
H          2.27114        4.65602       -1.58900
H          3.64824        3.51890       -1.77586
O          3.69430        3.05322        2.19793
H          4.63840        2.76614        0.35938
H          4.26582        4.45528        0.76256
H          4.55192        3.04642        2.63807
O          3.32677       -1.53591       -0.05680
S          3.07101       -3.18536        0.10273
O          3.32339       -3.46516        1.51801
O          1.66112       -3.37236       -0.29750
O          4.05525       -3.72756       -0.82559
H         -2.71329       -3.87884       -0.14981
H         -0.00975       -0.09837        3.56103
