59
ZTX_ketone_11_solv.log	Energy: -1435167.7485010
C         -1.26720        1.38966        1.15744
N         -0.51735        1.24854        2.38251
C          0.49347        0.39211        2.51889
C         -0.75662        2.35995        0.06331
H         -2.23258        1.83152        1.42049
N          1.28039        0.44277        3.57627
H          1.18983        1.20207        4.24484
H         -0.76906        1.83481        3.17367
N          0.72942       -0.50252        1.53625
C          0.61062       -0.77970       -0.78276
C          2.08499       -0.62042       -0.37297
C          2.07805       -0.91515        1.14075
O          0.17132       -0.82943       -1.89422
H          2.83421       -0.32313        1.66969
H          2.24819       -1.97427        1.36521
O         -1.53518        3.18355       -0.37219
C         -1.50659        0.02910        0.50773
C         -0.24432       -0.84289        0.50496
N         -0.80000       -2.16054        0.68268
C         -2.05120       -2.10823        1.13925
N         -2.47226       -0.82322        1.21800
H         -1.83579        0.17006       -0.53360
N         -2.75910       -3.16431        1.46050
H         -0.24516       -3.00153        0.51693
C         -3.84596       -0.45762        1.42502
H         -3.73687       -3.09286        1.72127
C          2.56008        0.81101       -0.67161
O         -4.65450       -0.71612        0.29229
H         -4.26388       -1.05389        2.24341
H         -3.89784        0.60000        1.70471
C         -4.76832        0.27009       -0.62595
O         -4.19848        1.33755       -0.56196
N         -5.64433       -0.10739       -1.58543
H         -5.86796       -1.09414       -1.70050
O         -5.66007        0.63013       -2.73738
H         -6.46775        1.16418       -2.70212
H          3.60694        0.85843       -0.34399
H          2.53441        0.94928       -1.76260
N          0.43828        2.08118       -0.56666
C          1.78319        1.93745        0.01046
C          2.35130        3.35121       -0.25698
C          1.64545        3.75827       -1.55195
O          0.60803        2.78250       -1.75025
H          1.72559        1.80099        1.09241
C          3.86096        3.45431       -0.31904
H          1.99547        3.98889        0.56579
H          1.20105        4.76165       -1.48821
H          2.30153        3.70254       -2.43216
O          4.38331        3.00601        0.91352
H          4.24803        2.85582       -1.16289
H          4.13617        4.50627       -0.51538
H          5.34416        2.97981        0.84110
O          2.91854       -1.45748       -1.13989
S          2.77497       -3.12185       -1.00048
O          3.70759       -3.48933        0.06756
O          1.35611       -3.33535       -0.64676
O          3.15182       -3.56310       -2.33735
H         -2.33728       -4.08690        1.40907
H          1.94842       -0.29769        3.76580
