59
ZTX_ketone_160_solv.log	Energy: -1435166.5879599
C          0.90599       -1.83647        0.94390
N          0.34926       -1.57239        2.24841
C         -0.42018       -0.51615        2.50630
C          0.07113       -2.61898       -0.10115
H          1.75866       -2.50601        1.09048
N         -1.09049       -0.43249        3.63950
H         -1.10587       -1.21877        4.28264
H          0.53155       -2.23673        2.99575
N         -0.54050        0.44851        1.57037
C         -0.61304        0.76657       -0.74462
C         -2.03109        0.93474       -0.17213
C         -1.78993        1.17482        1.33228
O         -0.29735        0.74835       -1.89829
H         -2.59957        0.75852        1.94317
H         -1.68065        2.23751        1.57697
O          0.60474       -3.56414       -0.64823
C          1.38722       -0.54506        0.28775
C          0.36826        0.59319        0.43813
N          1.22798        1.74307        0.56322
C          2.48236        1.39216        0.85072
N          2.59094        0.04193        0.88880
H          1.56650       -0.72279       -0.78525
N          3.46038        2.23573        1.07912
H          0.87681        2.69142        0.42296
C          3.81725       -0.67817        1.06076
H          4.43193        1.91531        0.99416
C         -2.85749       -0.33787       -0.42734
O          4.49412       -0.90727       -0.16461
H          4.45963       -0.14357        1.77011
H          3.59630       -1.66828        1.46991
C          5.47530       -0.05769       -0.50327
O          5.80234        0.91769        0.15556
N          6.10545       -0.41830       -1.63818
H          6.71492        0.26626       -2.08110
O          5.55864       -1.35456       -2.47037
H          6.06829       -2.16760       -2.33329
H         -3.85298       -0.15247       -0.00557
H         -2.97240       -0.44235       -1.51590
N         -1.10020       -2.07156       -0.57214
C         -2.30047       -1.63537        0.15935
C         -3.19217       -2.88265       -0.03158
C         -2.79597       -3.35740       -1.42968
O         -1.56066       -2.68331       -1.72939
H         -2.08655       -1.54538        1.22724
C         -4.68890       -2.73661        0.23088
H         -2.82645       -3.61821        0.70088
H         -2.64169       -4.44480       -1.47494
H         -3.51179       -3.05567       -2.20719
O         -5.39097       -1.93513       -0.69222
H         -5.12685       -3.74813        0.28321
H         -4.82319       -2.27782        1.22229
H         -5.50280       -2.43133       -1.51110
O         -2.72530        1.96423       -0.83736
S         -2.19011        3.54604       -0.70528
O         -2.89254        4.08097        0.46339
O         -0.73013        3.42142       -0.51275
O         -2.59776        4.10373       -1.98844
H          3.26677        3.23189        1.03265
H         -1.54911        0.43064        3.91266
