59
ZTX_ketone_200_solv.log	Energy: -1435166.4327956
C          1.30665       -1.32649        1.25201
N          0.61618       -1.09302        2.49757
C         -0.37308       -0.21033        2.62410
C          0.72874       -2.35879        0.25340
H          2.27618       -1.76849        1.50008
N         -1.10998       -0.17940        3.71786
H         -1.00268       -0.89804        4.42749
H          0.89067       -1.63679        3.31126
N         -0.63982        0.62623        1.59870
C         -0.62796        0.73970       -0.73786
C         -2.08305        0.63488       -0.25015
C         -1.99865        1.03697        1.23607
O         -0.24069        0.70628       -1.86921
H         -2.73939        0.50089        1.84066
H         -2.13921        2.11304        1.38935
O          1.47126       -3.22734       -0.15736
C          1.53464       -0.01521        0.50467
C          0.28754        0.87671        0.50105
N          0.87108        2.19297        0.56115
C          2.13646        2.14807        0.97780
N          2.54301        0.86304        1.11690
H          1.81329       -0.22761       -0.53929
N          2.86870        3.20959        1.21519
H          0.31800        3.03150        0.37840
C          3.92155        0.48788        1.27164
H          3.85224        3.13732        1.45288
C         -2.59444       -0.80480       -0.43319
O          4.67379        0.67005        0.08672
H          4.39196        1.12006        2.03247
H          3.97348       -0.55327        1.60659
C          4.69033       -0.35332       -0.79756
O          4.12140       -1.41095       -0.63476
N          5.39482        0.00941       -1.89331
H          6.04276        0.79307       -1.84179
O          5.74663       -0.98297       -2.76560
H          5.14973       -0.89641       -3.52414
H         -3.63247       -0.81684       -0.07745
H         -2.61088       -1.01218       -1.51259
N         -0.48965       -2.10014       -0.33948
C         -1.80647       -1.89858        0.28776
C         -2.38782       -3.32695        0.15855
C         -1.75755       -3.82960       -1.14324
O         -0.72438       -2.88086       -1.46129
H         -1.69525       -1.68780        1.35411
C         -3.89513       -3.48670        0.25366
H         -1.96228       -3.89494        0.99849
H         -1.31720       -4.83107       -1.03297
H         -2.46144       -3.82353       -1.98493
O         -4.52671       -2.99643       -0.90811
H         -4.11647       -4.55959        0.39595
H         -4.24890       -2.95966        1.15830
H         -5.47933       -3.07569       -0.78545
O         -2.93894        1.43297       -1.03445
S         -2.76375        3.09911       -1.01866
O         -3.64404        3.55549        0.05961
O         -1.32794        3.31167       -0.74193
O         -3.19195        3.45495       -2.36567
H          2.45820        4.13415        1.12435
H         -1.75953        0.58165        3.88879
