59
ZTX_ketone_13_solv.log	Energy: -1435167.9400545
C          0.70941       -1.99378        0.90431
N          0.16847       -1.73113        2.21619
C         -0.53104       -0.63443        2.50215
C         -0.17774       -2.68842       -0.15955
H          1.51387       -2.72385        1.03262
N         -1.19634       -0.53388        3.63651
H         -1.26885       -1.33292        4.25980
H          0.31000       -2.42496        2.94518
N         -0.58629        0.35658        1.58926
C         -0.59458        0.78501       -0.70652
C         -2.00755        1.02623       -0.14809
C         -1.78026        1.17529        1.36969
O         -0.26043        0.79594       -1.85511
H         -2.62770        0.78360        1.94483
H         -1.60824        2.21526        1.67052
O          0.26971       -3.67714       -0.70526
C          1.28375       -0.72114        0.28497
C          0.35089        0.48406        0.47958
N          1.29124        1.55801        0.67254
C          2.51608        1.10384        0.93936
N          2.53182       -0.25094        0.89837
H          1.44546       -0.87645       -0.79406
N          3.54786        1.86433        1.21883
H          1.01178        2.53602        0.58536
C          3.71489       -1.05637        0.97263
H          4.49572        1.48460        1.11349
C         -2.91327       -0.17250       -0.47938
O          4.36322       -1.19484       -0.28151
H          4.39960       -0.63691        1.71925
H          3.43788       -2.06865        1.28155
C          5.42893       -0.40796       -0.52922
O          5.81139        0.48717        0.20221
N          6.02531       -0.78718       -1.67640
H          5.53901       -1.39774       -2.33028
O          6.93706        0.06733       -2.22706
H          7.80968       -0.30745       -2.03290
H         -3.90594        0.06857       -0.07845
H         -3.00109       -0.22789       -1.57377
N         -1.28285       -2.02360       -0.64892
C         -2.46823       -1.52761        0.07000
C         -3.44970       -2.69928       -0.18032
C         -3.01015       -3.22171       -1.55190
O         -1.76226       -2.56457       -1.83189
H         -2.27507       -1.48977        1.14488
C         -4.93609       -2.41558       -0.04305
H         -3.20654       -3.45559        0.57973
H         -2.86180       -4.31128       -1.55377
H         -3.70070       -2.93886       -2.35598
O         -5.40054       -1.64222       -1.12726
H         -5.46579       -3.38382        0.00182
H         -5.11073       -1.90483        0.92136
H         -6.33525       -1.45758       -0.98326
O         -2.61685        2.13216       -0.77224
S         -1.96975        3.66348       -0.56388
O         -2.31102        4.30294       -1.82820
O         -2.65350        4.19965        0.61533
O         -0.52701        3.42291       -0.35328
H          3.42309        2.87248        1.22188
H         -1.60726        0.34857        3.92394
