59
ZTX_ketone_239_solv.log	Energy: -1435158.1759445
C          1.04466       -1.97416        0.45270
N          0.59816       -2.12587        1.81724
C         -0.06083       -1.17494        2.47762
C          0.08368       -2.32062       -0.70964
H          1.85238       -2.69595        0.30016
N         -0.63461       -1.43125        3.63658
H         -0.67109       -2.38235        3.99150
H          0.78287       -3.00672        2.28943
N         -0.16961        0.04865        1.91962
C         -0.37174        1.14317       -0.13861
C         -1.74870        1.14836        0.55825
C         -1.36254        0.89103        2.02728
O         -0.08049        1.61783       -1.19624
H         -2.15608        0.37703        2.58135
H         -1.12899        1.84160        2.52612
O          0.48795       -3.06635       -1.57745
C          1.57644       -0.56271        0.20312
C          0.66822        0.51196        0.82625
N          1.63718        1.49502        1.25139
C          2.87217        0.98508        1.30035
N          2.87314       -0.28252        0.82967
H          1.65347       -0.38309       -0.88098
N          3.92412        1.62482        1.75221
H          1.38339        2.39136        1.65964
C          4.05556       -1.04848        0.55575
H          4.86021        1.30860        1.47698
C         -2.69092        0.05862        0.01587
O          4.58956       -0.79192       -0.73055
H          4.80236       -0.85847        1.33544
H          3.80232       -2.11237        0.57033
C          5.60165        0.09515       -0.82869
O          6.06621        0.71919        0.10705
N          5.98702        0.20632       -2.11512
H          5.72609       -0.50943       -2.79100
O          7.15144        0.87102       -2.37221
H          6.89509        1.73250       -2.73545
H         -3.61343        0.12949        0.60620
H         -2.93782        0.29834       -1.02693
N         -1.05583       -1.55883       -0.86968
C         -2.17134       -1.37525        0.07317
C         -3.17195       -2.42081       -0.46591
C         -2.85411       -2.45395       -1.96480
O         -1.63619       -1.70408       -2.11954
H         -1.87777       -1.67390        1.08213
C         -4.63327       -2.16684       -0.15005
H         -2.89534       -3.38680       -0.01826
H         -2.70515       -3.47614       -2.34065
H         -3.61496       -1.94544       -2.57337
O         -5.36559       -3.27417       -0.63015
H         -4.75856       -2.04273        0.94159
H         -4.97041       -1.23302       -0.63384
H         -6.30345       -3.07066       -0.54161
O         -2.28991        2.45069        0.50289
S         -3.40031        2.98374       -0.63855
O         -2.88164        2.54911       -1.94158
O         -4.67166        2.35776       -0.25641
O         -3.32920        4.42212       -0.39123
H          3.81364        2.58177        2.07539
H         -0.99648       -0.68107        4.21665
