59
ZTX_ketone_26_solv.log	Energy: -1435166.4334106
C         -1.30646        1.32660        1.25185
N         -0.61598        1.09315        2.49740
C          0.37321        0.21039        2.62397
C         -0.72857        2.35879        0.25313
H         -2.27596        1.76867        1.49994
N          1.11011        0.17943        3.71773
H          1.00285        0.89808        4.42735
H         -0.89041        1.63697        3.31107
N          0.63987       -0.62621        1.59860
C          0.62798       -0.73971       -0.73795
C          2.08306       -0.63496       -0.25026
C          1.99866       -1.03703        1.23596
O          0.24070       -0.70637       -1.86930
H          2.73945       -0.50100        1.84055
H          2.13916       -2.11311        1.38924
O         -1.47119        3.22716       -0.15786
C         -1.53455        0.01532        0.50456
C         -0.28752       -0.87668        0.50097
N         -0.87110       -2.19291        0.56108
C         -2.13651       -2.14794        0.97769
N         -2.54296       -0.86287        1.11684
H         -1.81320        0.22769       -0.53941
N         -2.86888       -3.20938        1.21501
H         -0.31807       -3.03144        0.37813
C         -3.92143       -0.48761        1.27182
H         -3.85247       -3.13702        1.45241
C          2.59455        0.80469       -0.43331
O         -4.67389       -0.66979        0.08704
H         -4.39174       -1.11973        2.03275
H         -3.97321        0.55356        1.60672
C         -4.69056        0.35354       -0.79727
O         -4.12144        1.41108       -0.63468
N         -5.39535       -0.00920       -1.89285
H         -6.04377       -0.79244       -1.84081
O         -5.74733        0.98330       -2.76498
H         -5.15077        0.89661       -3.52378
H          3.63260        0.81666       -0.07763
H          2.61095        1.01206       -1.51271
N          0.48991        2.10026       -0.33956
C          1.80669        1.89853        0.28767
C          2.38818        3.32682        0.15846
C          1.75822        3.82935       -1.14352
O          0.72471        2.88091       -1.46140
H          1.69544        1.68775        1.35402
C          3.89549        3.48645        0.25388
H          1.96249        3.89492        0.99825
H          1.31821        4.83101       -1.03356
H          2.46217        3.82280       -1.98515
O          4.52727        2.99606       -0.90772
H          4.11690        4.55933        0.39616
H          4.24901        2.95943        1.15862
H          5.47989        3.07480       -0.78466
O          2.93881       -1.43314       -1.03460
S          2.76341       -3.09927       -1.01858
O          3.64367       -3.55561        0.05972
O          1.32757       -3.31160       -0.74175
O          3.19149       -3.45532       -2.36556
H         -2.45847       -4.13398        1.12412
H          1.75956       -0.58168        3.88869
