59
ZTX_ketone_36_solv.log	Energy: -1435170.2869211
C         -1.47647        1.34686       -0.79994
N         -1.63529        1.32580        0.63331
C         -0.96099        0.47796        1.40934
C         -0.39924        2.25374       -1.43916
H         -2.39668        1.77163       -1.21111
N         -1.04884        0.56037        2.72313
H         -1.56487        1.32300        3.15214
H         -2.48455        1.75588        1.02211
N         -0.13690       -0.42503        0.83635
C          1.19153       -0.83997       -1.03741
C          2.10056       -0.59290        0.18378
C          1.16261       -0.80478        1.39062
O          1.53534       -0.96717       -2.17609
H          1.42480       -0.15050        2.23088
H          1.15770       -1.84207        1.74494
O         -0.74497        2.97053       -2.35851
C         -1.29810       -0.06879       -1.34931
C         -0.27153       -0.87323       -0.54604
N         -0.82367       -2.20494       -0.63158
C         -2.14539       -2.15106       -0.83649
N         -2.49845       -0.90563       -1.21612
H         -0.99165       -0.02533       -2.40617
N         -2.94929       -3.18116       -0.71949
H         -0.30841       -3.01104       -0.27579
C         -3.81890       -0.42528       -1.50464
H         -3.95706       -3.05284       -0.73544
C          2.65836        0.83895        0.14655
O         -4.30702        0.37624       -0.44140
H         -3.78321        0.23820       -2.37574
H         -4.49503       -1.26100       -1.71796
C         -4.69663       -0.26509        0.67254
O         -4.91412       -1.45705        0.73839
N         -4.87760        0.58772        1.71426
H         -4.96807        0.16873        2.63769
O         -4.24647        1.80550        1.71718
H         -4.90634        2.46896        1.46273
H          3.28465        0.94321        1.04238
H          3.30758        0.92099       -0.73764
N          0.92676        2.03140       -1.15297
C          1.62665        1.96670        0.13758
C          2.23900        3.38581        0.18783
C          2.48879        3.69668       -1.28937
O          1.79200        2.67480       -2.02331
H          0.91263        1.87837        0.95945
C          3.46222        3.54848        1.06583
H          1.44948        4.04998        0.56948
H          2.10534        4.68519       -1.57947
H          3.54860        3.61709       -1.56991
O          3.11163        3.18269        2.38325
H          4.29144        2.92800        0.68155
H          3.79582        4.60062        1.01434
H          3.90941        3.20986        2.92351
O          3.23136       -1.43158        0.14868
S          3.03676       -3.08915        0.29982
O          3.11888       -3.34467        1.73981
O          1.69965       -3.35057       -0.27251
O          4.15594       -3.59046       -0.48782
H         -2.58184       -4.05124       -0.34501
H         -0.66759       -0.16976        3.31596
