59
ZTX_ketone_123_solv.log	Energy: -1435166.9249890
C         -1.48518        1.17660       -0.49578
N         -1.55889        1.11632        0.94412
C         -0.77638        0.32115        1.67136
C         -0.49101        2.14555       -1.17617
H         -2.45608        1.55165       -0.83253
N         -0.74605        0.41686        2.98625
H         -1.23738        1.17154        3.45631
H         -2.31965        1.61284        1.40211
N          0.03156       -0.55259        1.03577
C          1.25674       -0.89220       -0.92231
C          2.23071       -0.61510        0.23927
C          1.38157       -0.87507        1.49945
O          1.53203       -1.00319       -2.08102
H          1.66959       -0.21500        2.32604
H          1.44534       -1.91305        1.84564
O         -0.92465        2.87900       -2.04254
C         -1.26406       -0.21305       -1.08881
C         -0.17240       -0.99045       -0.34106
N         -0.67126       -2.34120       -0.41557
C         -1.98239       -2.35575       -0.66756
N         -2.41749       -1.11410       -0.97171
H         -0.97935       -0.12127       -2.14905
N         -2.72815       -3.43455       -0.63035
H         -0.10351       -3.13550       -0.11835
C         -3.72127       -0.83494       -1.52270
H         -3.72340       -3.39957       -0.82504
C          2.72653        0.83896        0.18090
O         -4.72029       -0.84739       -0.52386
H         -3.68582        0.12989       -2.04183
H         -4.00990       -1.61372       -2.23924
C         -5.00566        0.30962        0.11256
O         -4.53090        1.39033       -0.16596
N         -5.93703        0.08044        1.06415
H         -6.09820       -0.86515        1.40487
O         -6.17210        1.08002        1.96550
H         -7.00843        1.49107        1.69884
H          3.40715        0.95966        1.03481
H          3.31592        0.95215       -0.74101
N          0.86208        1.94787       -1.00133
C          1.65166        1.92508        0.23927
C          2.21264        3.36275        0.23707
C          2.35346        3.66600       -1.25769
O          1.63784        2.61717       -1.93447
H          0.99628        1.81445        1.10700
C          3.48038        3.58731        1.03760
H          1.42943        4.00811        0.66175
H          1.92335        4.63929       -1.53294
H          3.39480        3.61275       -1.60566
O          3.76449        4.96955        0.99660
H          3.32838        3.23637        2.07520
H          4.31216        3.00399        0.60506
H          4.63152        5.10588        1.39474
O          3.39037       -1.40574        0.12430
S          3.27542       -3.07124        0.27523
O          3.46397       -3.32910        1.70447
O          1.91584       -3.38623       -0.21040
O          4.35978       -3.52037       -0.58883
H         -2.31140       -4.32623       -0.38042
H         -0.27395       -0.28465        3.54788
