59
ZTX_ketone_178_solv.log	Energy: -1435169.9759525
C         -1.47743        1.33495       -0.81335
N         -1.63732        1.32085        0.61987
C         -0.96099        0.47936        1.40106
C         -0.40330        2.24261       -1.45693
H         -2.39891        1.75397       -1.22768
N         -1.04907        0.56983        2.71440
H         -1.56988        1.33211        3.13825
H         -2.48776        1.75110        1.00606
N         -0.13400       -0.42459        0.83395
C          1.19894       -0.83921       -1.03677
C          2.10498       -0.58330        0.18460
C          1.16672       -0.79624        1.39105
O          1.54462       -0.96711       -2.17482
H          1.42486       -0.13812        2.22953
H          1.16627       -1.83239        1.74867
O         -0.75084        2.94647       -2.38598
C         -1.29387       -0.08298       -1.35473
C         -0.26442       -0.87886       -0.54701
N         -0.80981       -2.21355       -0.62805
C         -2.13199       -2.16649       -0.83254
N         -2.49076       -0.92401       -1.21664
H         -0.98740       -0.04441       -2.41177
N         -2.93112       -3.19974       -0.71122
H         -0.29080       -3.01584       -0.26901
C         -3.81340       -0.45022       -1.50559
H         -3.93952       -3.07682       -0.72924
C          2.65475        0.85166        0.14428
O         -4.30307        0.35516       -0.44594
H         -3.78181        0.20870       -2.38034
H         -4.48671       -1.28963       -1.71330
C         -4.68705       -0.28177        0.67241
O         -4.89685       -1.47459        0.74587
N         -4.87242        0.57626        1.70929
H         -4.95771        0.16167        2.63523
O         -4.24771        1.79745        1.70446
H         -4.91163        2.45607        1.44804
H          3.28043        0.95940        1.03978
H          3.30449        0.93544       -0.73940
N          0.92214        2.03616       -1.16111
C          1.61677        1.97395        0.13192
C          2.22011        3.39531        0.18370
C          2.49529        3.69520       -1.29037
O          1.78693        2.68394       -2.02952
H          0.89995        1.88206        0.95093
C          3.42311        3.57254        1.09642
H          1.41548        4.05702        0.54034
H          2.13645        4.68957       -1.59131
H          3.55757        3.59278       -1.55482
O          3.15496        3.15550        2.41759
H          4.26978        2.96922        0.73633
H          3.74361        4.62878        1.06188
H          2.44639        3.70797        2.77005
O          3.24035       -1.41589        0.15375
S          3.05362       -3.07379        0.31121
O          3.13429       -3.32328        1.75232
O          1.71873       -3.34379       -0.26250
O          4.17653       -3.57286       -0.47246
H         -2.55958       -4.06687       -0.33389
H         -0.66773       -0.15665        3.31169
