59
ZTX_ketone_187_solv.log	Energy: -1435159.8526686
C          1.37535        1.32942        0.58309
N          1.48949        1.55115       -0.83895
C          0.83112        0.82787       -1.74276
C          0.25058        2.03106        1.38166
H          2.27905        1.74324        1.04150
N          0.80117        1.19096       -3.00962
H          1.19176        2.08364       -3.29700
H          2.10088        2.29603       -1.16198
N          0.15504       -0.26596       -1.33343
C         -1.05216       -1.16599        0.45666
C         -2.04412       -0.76253       -0.65451
C         -1.13099       -0.68490       -1.89090
O         -1.28917       -1.59813        1.54516
H         -1.49373        0.04232       -2.62653
H         -1.05461       -1.67369       -2.36314
O          0.56615        2.64702        2.38009
C          1.31077       -0.16582        0.89913
C          0.39089       -0.93097       -0.06446
N          1.10980       -2.17774       -0.22638
C          2.40163       -2.03059        0.10648
N          2.59072       -0.85292        0.73688
H          0.95518       -0.31072        1.93170
N          3.34064       -2.91307       -0.12413
H          0.80170       -2.88691       -0.88825
C          3.72151       -0.52390        1.56359
H          4.32029       -2.62527       -0.01296
C         -2.71488        0.59176       -0.35269
O          4.62039        0.36396        0.92792
H          3.35792        0.00839        2.44957
H          4.23828       -1.43823        1.88035
C          5.58319       -0.17566        0.15630
O          5.70486       -1.36667       -0.06376
N          6.40955        0.78948       -0.29254
H          6.13091        1.76767       -0.24607
O          7.27567        0.46467       -1.29662
H          8.14378        0.35608       -0.87917
H         -3.36606        0.79002       -1.21503
H         -3.35097        0.46438        0.53264
N         -1.05694        1.69446        1.11171
C         -1.79273        1.79201       -0.15745
C         -2.53532        3.13059        0.06071
C         -2.78177        3.13407        1.56922
O         -1.94106        2.09555        2.10180
H         -1.10231        1.92616       -0.99288
C         -3.78581        3.33655       -0.76786
H         -1.81916        3.92715       -0.19085
H         -2.51874        4.09417        2.03519
H         -3.81603        2.86960        1.83223
O         -3.42646        3.26714       -2.13124
H         -4.54217        2.57399       -0.51011
H         -4.21956        4.32080       -0.51455
H         -4.23359        3.31159       -2.65611
O         -3.01616       -1.73884       -0.95251
S         -4.01043       -2.52309        0.15248
O         -3.20895       -3.65510        0.62707
O         -4.34811       -1.53588        1.18497
O         -5.11556       -2.89232       -0.73212
H          3.11663       -3.76181       -0.63482
H          0.43490        0.56734       -3.72165
