59
ZTX_ketone_250_solv.log	Energy: -1435169.5412830
C         -1.33774        1.47325       -0.41050
N         -1.33612        1.40607        1.03074
C         -0.57710        0.55073        1.71256
C         -0.30572        2.37287       -1.13244
H         -2.28990        1.92639       -0.70511
N         -0.45846        0.64783        3.02238
H         -0.86057        1.43832        3.51757
H         -1.96256        2.02127        1.54294
N          0.11258       -0.39199        1.03666
C          1.19290       -0.84526       -0.98377
C          2.25092       -0.64549        0.11686
C          1.45606       -0.82396        1.42594
O          1.39027       -0.98265       -2.15559
H          1.84732       -0.18556        2.22738
H          1.45308       -1.86114        1.77964
O         -0.72312        3.17056       -1.94763
C         -1.25179        0.07359       -1.01952
C         -0.20517       -0.80794       -0.32508
N         -0.84099       -2.10346       -0.36559
C         -2.16099       -1.98668       -0.54023
N         -2.47660       -0.71235       -0.86301
H         -1.00744        0.15198       -2.09151
N         -3.02522       -2.96719       -0.44119
H         -0.35283       -2.94080       -0.04816
C         -3.72325       -0.28373       -1.43417
H         -4.02205       -2.73323       -0.37559
C          2.86225        0.76189        0.01298
O         -4.54091        0.38852       -0.49434
H         -3.51421        0.44983       -2.22024
H         -4.25482       -1.13701       -1.87260
C         -5.33473       -0.36756        0.27680
O         -5.42171       -1.58259        0.19571
N         -6.00940        0.35609        1.19323
H         -6.78895       -0.09265        1.67044
O         -6.09209        1.71635        1.07699
H         -5.47811        2.07907        1.73341
H          3.60034        0.82843        0.82293
H          3.39786        0.82449       -0.94585
N          1.03110        2.04396       -1.04991
C          1.88732        1.93202        0.14061
C          2.55919        3.32388        0.12448
C          2.64952        3.63470       -1.37004
O          1.80562        2.66601       -2.01735
H          1.28086        1.86090        1.04636
C          3.88007        3.43386        0.86841
H          1.84207        4.01668        0.59180
H          2.29835        4.64811       -1.61057
H          3.66200        3.49153       -1.77423
O          3.76687        3.02451        2.21398
H          4.63999        2.79068        0.40014
H          4.24667        4.47269        0.79040
H          3.14533        3.61641        2.65559
O          3.33088       -1.53301       -0.05187
S          3.07652       -3.18233        0.11142
O          3.32719       -3.45840        1.52771
O          1.66729       -3.37163       -0.29019
O          4.06239       -3.72593       -0.81431
H         -2.70537       -3.88337       -0.14152
H         -0.01171       -0.08919        3.55864
