59
ZTX_ketone_54_solv.log	Energy: -1435170.4188048
C          1.19470       -1.62325       -0.37651
N          1.21793       -1.51449        1.06165
C          0.51931       -0.59828        1.72842
C          0.09905       -2.47557       -1.06153
H          2.11332       -2.14232       -0.66906
N          0.40310       -0.65964        3.04069
H          0.76058       -1.46192        3.55097
H          1.79810       -2.16450        1.58513
N         -0.11242        0.37130        1.03407
C         -1.17480        0.85549       -0.98801
C         -2.23524        0.75052        0.12259
C         -1.42007        0.90396        1.42223
O         -1.37164        0.98093       -2.16133
H         -1.84796        0.31130        2.23954
H         -1.34298        1.94650        1.75129
O          0.45664       -3.32689       -1.85043
C          1.19276       -0.23938       -1.02653
C          0.22310        0.73250       -0.33910
N          0.95284        1.97545       -0.41470
C          2.25694        1.75993       -0.61344
N          2.47364        0.46074       -0.91907
H          0.92134       -0.33147       -2.09096
N          3.19137        2.67641       -0.54721
H          0.53670        2.85184       -0.10088
C          3.66521       -0.05633       -1.53643
H          4.17162        2.37620       -0.50933
C         -2.94223       -0.61368        0.04980
O          4.48317       -0.76866       -0.62803
H          3.37494       -0.78334       -2.30272
H          4.22981        0.75731       -2.00836
C          5.35853       -0.05407        0.10419
O          5.51422        1.14916        0.01272
N          6.00251       -0.86306        0.97128
H          6.00692       -1.86955        0.81507
O          7.11077       -0.36034        1.59247
H          6.84229       -0.16551        2.50301
H         -3.68019       -0.61324        0.86299
H         -3.48418       -0.65736       -0.90654
N         -1.21247       -2.05265       -0.98810
C         -2.05523       -1.84929        0.20009
C         -2.82989       -3.18852        0.22043
C         -2.92948       -3.54382       -1.26389
O         -2.02985       -2.64713       -1.93711
H         -1.44326       -1.80522        1.10363
C         -4.16264       -3.17221        0.93891
H         -2.17622       -3.91629        0.72373
H         -2.63414       -4.58321       -1.46592
H         -3.92950       -3.35850       -1.68132
O         -3.93616       -2.78970        2.27863
H         -4.85946       -2.48039        0.43288
H         -4.60846       -4.18138        0.87735
H         -4.79091       -2.70608        2.71634
O         -3.25490        1.70459       -0.05901
S         -2.88963        3.33595        0.06517
O         -3.11612        3.66047        1.47543
O         -1.47242        3.42112       -0.34372
O         -3.84091        3.92356       -0.87021
H          2.94362        3.62051       -0.26647
H          0.01412        0.11816        3.56399
