59
ZTX_ketone_133_solv.log	Energy: -1435166.8977676
C         -1.10096        1.64469        0.99088
N         -0.40405        1.49004        2.24531
C          0.49711        0.53296        2.45901
C         -0.45356        2.48682       -0.13662
H         -2.01614        2.20701        1.19806
N          1.26093        0.55414        3.53394
H          1.24179        1.35424        4.15933
H         -0.60242        2.14760        2.99467
N          0.65326       -0.43846        1.53498
C          0.56555       -0.82187       -0.76928
C          2.03749       -0.80972       -0.32028
C          1.95606       -1.02106        1.20559
O          0.15363       -0.87814       -1.89094
H          2.75906       -0.48894        1.72916
H          1.99955       -2.07910        1.48799
O         -1.12539        3.36031       -0.64728
C         -1.47830        0.28441        0.40941
C         -0.32441       -0.72196        0.49092
N         -1.03100       -1.95699        0.71695
C         -2.27312       -1.73835        1.14898
N         -2.54934       -0.41274        1.13880
H         -1.76655        0.40196       -0.64620
N         -3.09111       -2.69194        1.52610
H         -0.56903       -2.86279        0.62345
C         -3.87207        0.12004        1.31277
H         -4.06356       -2.51315        1.75359
C          2.68518        0.53974       -0.67263
O         -4.71648       -0.13508        0.20411
H         -4.35105       -0.36145        2.17203
H         -3.80402        1.19508        1.50953
C         -4.67050        0.74471       -0.81278
O         -3.93597        1.71321       -0.84883
N         -5.50132        0.40344       -1.82335
H         -5.69415        1.11239       -2.52821
O         -6.50564       -0.50405       -1.61716
H         -6.21321       -1.32692       -2.03709
H          3.72084        0.48075       -0.31310
H          2.70747        0.62172       -1.76937
N          0.72369        2.04785       -0.70367
C          2.02588        1.78242       -0.07431
C          2.75573        3.10602       -0.39413
C          2.16603        3.49213       -1.75015
O          1.00462        2.65885       -1.91679
H          1.92548        1.71119        1.01059
C          4.27409        3.05193       -0.35782
H          2.41861        3.83172        0.36253
H          1.86903        4.54941       -1.79417
H          2.84122        3.26507       -2.58780
O          4.75699        2.57494        0.87941
H          4.65345        2.37111       -1.13443
H          4.67222        4.05594       -0.58809
H          4.48051        3.19318        1.56722
O          2.78797       -1.77518       -1.01882
S          2.45042       -3.40312       -0.80576
O          3.31311       -3.81952        0.30226
O          1.00945       -3.43517       -0.47947
O          2.80097       -3.95041       -2.11009
H         -2.76695       -3.65462        1.52933
H          1.83636       -0.24447        3.78125
