59
ZTX_ketone_198_solv.log	Energy: -1435165.8742306
C         -1.30355        1.33293        1.24929
N         -0.61090        1.10164        2.49399
C          0.37685        0.21730        2.62101
C         -0.72520        2.35971        0.24549
H         -2.27170        1.77756        1.49801
N          1.11553        0.18776        3.71363
H          1.01063        0.90837        4.42160
H         -0.88281        1.64796        3.30683
N          0.63996       -0.62255        1.59741
C          0.62514       -0.73943       -0.73911
C          2.08109       -0.63727       -0.25301
C          1.99710       -1.03770        1.23377
O          0.23691       -0.70837       -1.87022
H          2.74005       -0.50335        1.83711
H          2.13439       -2.11405        1.38801
O         -1.46646        3.22766       -0.16871
C         -1.53504        0.02023        0.50551
C         -0.28917       -0.87323        0.50122
N         -0.87443       -2.18866        0.56407
C         -2.13897       -2.14134        0.98319
N         -2.54332       -0.85550        1.12136
H         -1.81547        0.23075       -0.53836
N         -2.87255       -3.20126        1.22357
H         -0.32273       -3.02814        0.38136
C         -3.92090       -0.47798        1.27860
H         -3.85559       -3.12692        1.46270
C          2.59725        0.80069       -0.43659
O         -4.67632       -0.66222        0.09600
H         -4.39037       -1.10743        2.04227
H         -3.97044        0.56415        1.61080
C         -4.69384        0.35887       -0.79083
O         -4.12333        1.41628       -0.63216
N         -5.40139       -0.00588       -1.88395
H         -6.05044       -0.78836       -1.82851
O         -5.75464        0.98489       -2.75752
H         -5.16002        0.89595       -3.51757
H          3.63342        0.81013       -0.07635
H          2.61980        1.00527       -1.51663
N          0.49115        2.09315       -0.34818
C          1.80913        1.89804        0.27896
C          2.38718        3.32393        0.13439
C          1.78205        3.79252       -1.18958
O          0.72229        2.86385       -1.47865
H          1.69986        1.69535        1.34725
C          3.89722        3.49452        0.28058
H          1.93472        3.90853        0.94962
H          1.37247        4.81063       -1.12472
H          2.48486        3.73326       -2.03215
O          4.67144        2.93363       -0.75563
H          4.11182        4.57122        0.39020
H          4.21088        3.00867        1.21721
H          4.63448        3.51805       -1.52122
O          2.93395       -1.43845       -1.03750
S          2.75574       -3.10422       -1.01873
O          3.18165       -3.46289       -2.36573
O          3.63644       -3.56052        0.05919
O          1.31987       -3.31391       -0.74003
H         -2.46380       -4.12666        1.13347
H          1.76336       -0.57448        3.88581
