59
ZTX_ketone_235_solv.log	Energy: -1435168.5278301
C          1.18925       -1.65794       -0.27931
N          1.24304       -1.49398        1.15318
C          0.57430       -0.53871        1.79571
C          0.06570       -2.51846       -0.90691
H          2.09209       -2.20488       -0.56985
N          0.48381       -0.54255        3.11153
H          0.83399       -1.32972        3.64945
H          1.82324       -2.13237        1.69076
N         -0.05662        0.41223        1.07507
C         -1.14753        0.83719       -0.94428
C         -2.18910        0.79323        0.18773
C         -1.34889        0.97992        1.46656
O         -1.36340        0.92111       -2.11807
H         -1.77127        0.42358        2.31184
H         -1.25006        2.03227        1.75651
O          0.39387       -3.41209       -1.66126
C          1.19849       -0.30040       -0.98185
C          0.25936        0.71442       -0.31610
N          1.00876        1.94006       -0.45345
C          2.30410        1.69500       -0.67263
N          2.49373        0.37979       -0.92541
H          0.90504       -0.42767       -2.03663
N          3.25419        2.59789       -0.66995
H          0.61092        2.83658       -0.17478
C          3.65844       -0.18072       -1.55722
H          4.22975        2.28138       -0.63952
C         -2.92292       -0.55931        0.17435
O          4.49279       -0.86904       -0.64542
H          3.33280       -0.93307       -2.28418
H          4.22135        0.60223       -2.07994
C          5.41767       -0.14426        0.01223
O          5.56378        1.05828       -0.10540
N          6.17874       -0.95272        0.77665
H          5.87003       -1.90010        0.98617
O          6.97919       -0.36750        1.71514
H          7.87912       -0.39542        1.35658
H         -3.66609       -0.51490        0.98005
H         -3.46936       -0.63032       -0.77726
N         -1.23654       -2.06838       -0.82958
C         -2.05412       -1.80229        0.36613
C         -2.82482       -3.13879        0.46584
C         -2.99800       -3.53059       -1.00179
O         -2.08058       -2.69877       -1.73323
H         -1.42040       -1.72455        1.25289
C         -4.08908       -3.16743        1.32180
H         -2.12458       -3.84689        0.93424
H         -2.76122       -4.58866       -1.18338
H         -3.99956       -3.30601       -1.39386
O         -5.18138       -2.43765        0.80958
H         -4.36711       -4.22213        1.48765
H         -3.84923       -2.74057        2.30775
H         -5.58927       -2.94887        0.10134
O         -3.19392        1.75975       -0.01163
S         -2.79470        3.38650        0.03826
O         -1.38243        3.42528       -0.39475
O         -3.74838        3.95457       -0.90665
O         -2.99136        3.77567        1.43684
H          3.02849        3.55735       -0.42500
H          0.11041        0.26020        3.60788
