59
ZTX_ketone_282_solv.log	Energy: -1435156.1652096
C          0.85976       -2.08694        0.37058
N          0.40779       -2.29784        1.72536
C         -0.21925       -1.36199        2.43593
C         -0.10895       -2.34357       -0.80933
H          1.64699       -2.82226        0.17963
N         -0.79597       -1.65744        3.58396
H         -0.86363       -2.62344        3.89086
H          0.56698       -3.20663        2.15162
N         -0.29216       -0.10867        1.94163
C         -0.46713        1.08609       -0.06442
C         -1.83827        1.11201        0.64626
C         -1.45774        0.76145        2.09640
O         -0.17421        1.52483       -1.13633
H         -2.26644        0.24287        2.62360
H         -1.19582        1.67705        2.64404
O          0.28070       -3.04947       -1.71721
C          1.43256       -0.68001        0.19508
C          0.55533        0.38638        0.87164
N          1.54966        1.32312        1.33863
C          2.77153        0.78070        1.35679
N          2.73590       -0.46677        0.83404
H          1.51360       -0.44654       -0.87844
N          3.84131        1.37543        1.82686
H          1.32161        2.21152        1.77796
C          3.89522       -1.25039        0.51720
H          4.76793        1.04527        1.53435
C         -2.80900        0.08176        0.03790
O          4.43830       -0.93388       -0.75258
H          4.64737       -1.12758        1.30532
H          3.60875       -2.30497        0.47063
C          5.50369       -0.10818       -0.79328
O          5.96986        0.46546        0.17383
N          5.99344       -0.05228       -2.04713
H          5.43598       -0.38680       -2.83074
O          6.88711        0.93940       -2.33396
H          7.75917        0.51699       -2.36007
H         -3.72719        0.15488        0.63735
H         -3.04734        0.40774       -0.98278
N         -1.22738       -1.54673       -0.92894
C         -2.34237       -1.37205        0.01561
C         -3.37190       -2.35453       -0.58421
C         -3.06132       -2.28489       -2.08327
O         -1.80137       -1.60004       -2.18920
H         -2.06453       -1.73398        1.00899
C         -4.83089       -2.09694       -0.22819
H         -3.11189       -3.35535       -0.20914
H         -2.97707       -3.27994       -2.54270
H         -3.79416       -1.68406       -2.64176
O         -5.66808       -3.14723       -0.66170
H         -4.93207       -2.03850        0.86617
H         -5.16340       -1.13050       -0.64555
H         -5.73518       -3.10261       -1.62300
O         -2.44576        2.38275        0.70283
S         -2.65427        3.44461       -0.58277
O         -2.96209        2.62119       -1.75821
O         -3.77572        4.23133       -0.06985
O         -1.38646        4.17605       -0.66383
H          3.75619        2.32018        2.19087
H         -1.13143       -0.92548        4.20172
