59
ZTX_ketone_56_solv.log	Energy: -1435166.3470025
C         -1.22089        1.34968        1.20346
N         -0.52555        1.11050        2.44479
C          0.42052        0.18308        2.58006
C         -0.60720        2.32936        0.17419
H         -2.16607        1.84029        1.45262
N          1.16843        0.14048        3.66608
H          1.09824        0.87527        4.36379
H         -0.76733        1.68002        3.25122
N          0.63440       -0.68677        1.56964
C          0.59196       -0.84067       -0.76455
C          2.05659       -0.79757       -0.29245
C          1.96776       -1.16980        1.20168
O          0.19579       -0.81192       -1.89274
H          2.73914       -0.66095        1.79129
H          2.05672       -2.24872        1.37262
O         -1.31104        3.22149       -0.25229
C         -1.52070        0.03450        0.48955
C         -0.31563       -0.91344        0.48589
N         -0.95855       -2.20034        0.57629
C         -2.21423       -2.08908        1.01093
N         -2.55547       -0.78413        1.13931
H         -1.81004        0.23574       -0.55400
N         -2.99355       -3.11076        1.27209
H         -0.44853       -3.06673        0.39770
C         -3.90996       -0.34010        1.31929
H         -3.96651       -2.98980        1.53275
C          2.63819        0.61157       -0.49890
O         -4.68505       -0.47263        0.14279
H         -4.39856       -0.95577        2.08201
H         -3.90430        0.69915        1.66503
C         -4.71217        0.58276       -0.70237
O         -4.08853        1.60882       -0.53985
N         -5.57110        0.32687       -1.71557
H         -5.84538       -0.63370       -1.91292
O         -5.51062        1.15191       -2.80477
H         -6.28961        1.72565       -2.74927
H          3.67254        0.56922       -0.13135
H          2.67074        0.79981       -1.58224
N          0.59122        1.99497       -0.42387
C          1.90294        1.75629        0.19928
C          2.55750        3.14006        0.00576
C          1.93572        3.62565       -1.30679
O          0.84606        2.72486       -1.57444
H          1.79387        1.58123        1.27233
C          4.07273        3.17086        0.02715
H          2.19877        3.77580        0.82890
H          2.62598        3.54790       -2.15873
H          1.55253        4.65342       -1.23678
O          4.46721        4.52395       -0.05276
H          4.43719        2.69781        0.95780
H          4.47778        2.59381       -0.82284
H          5.42635        4.54841       -0.14416
O          2.86437       -1.64776       -1.07216
S          2.61210       -3.30413       -1.02644
O          3.00745       -3.70033       -2.37213
O          3.48293       -3.78296        0.04957
O          1.17129       -3.44403       -0.73012
H         -2.62783       -4.05487        1.19181
H          1.77415       -0.65260        3.85214
