59
ZTX_ketone_146_solv.log	Energy: -1435168.1331769
C         -1.53148        1.13039       -0.59040
N         -1.58643        1.12791        0.85154
C         -0.76140        0.40267        1.60433
C         -0.60395        2.12581       -1.32485
H         -2.52593        1.43513       -0.92867
N         -0.72496        0.56090        2.91305
H         -1.24843        1.31280        3.35166
H         -2.37237        1.59854        1.29440
N          0.08021       -0.46137        1.00011
C          1.30627       -0.80216       -0.95873
C          2.27229       -0.42619        0.18016
C          1.45091       -0.69179        1.45824
O          1.57377       -0.93124       -2.11748
H          1.70931        0.01037        2.25958
H          1.57627       -1.71298        1.83602
O         -1.08748        2.78219       -2.22724
C         -1.24389       -0.26888       -1.12797
C         -0.10994       -0.95978       -0.35858
N         -0.53769       -2.33672       -0.37942
C         -1.84662       -2.42890       -0.62643
N         -2.34822       -1.22283       -0.96785
H         -0.96813       -0.20631       -2.19262
N         -2.53677       -3.54183       -0.55475
H          0.07376       -3.09061       -0.06483
C         -3.67442       -1.03435       -1.50204
H         -3.53246       -3.56342       -0.75080
C          2.67878        1.05259        0.06524
O         -4.65637       -1.08465       -0.48681
H         -3.70747       -0.08290       -2.04609
H         -3.93033       -1.84671       -2.19342
C         -4.94379        0.05009        0.18698
O         -4.54439        1.15507       -0.11295
N         -5.71215       -0.24736        1.25923
H         -6.19814       -1.14167        1.29719
O         -6.35445        0.79216        1.87296
H         -5.87972        0.94673        2.70348
H          3.35338        1.24541        0.90954
H          3.25341        1.16875       -0.86561
N          0.75512        2.03713       -1.13812
C          1.54233        2.07468        0.10109
C          2.01401        3.54569        0.07672
C          2.16452        3.82208       -1.41916
O          1.49002        2.73750       -2.08229
H          0.89596        1.94417        0.97144
C          3.25107        3.86016        0.90194
H          1.17598        4.14283        0.46899
H          1.70836        4.77607       -1.71879
H          3.21173        3.79474       -1.75325
O          3.10479        3.46740        2.24933
H          4.12427        3.32151        0.50459
H          3.47221        4.93873        0.81582
H          2.37404        3.96929        2.63101
O          3.47643       -1.14946        0.08124
S          3.46040       -2.81386        0.27691
O          3.68301       -3.02230        1.70929
O          2.11442       -3.21888       -0.17908
O          4.55682       -3.22367       -0.59159
H         -2.07780       -4.40222       -0.27111
H         -0.21857       -0.09268        3.50212
