59
ZTX_ketone_125_solv.log	Energy: -1435163.2100827
C         -1.47893        1.10992        1.15703
N         -0.79966        0.96022        2.42077
C          0.24338        0.15013        2.59349
C         -0.97749        2.14392        0.11970
H         -2.48779        1.47590        1.37443
N          0.95234        0.19150        3.70482
H          0.77858        0.91399        4.39764
H         -1.13625        1.49638        3.21603
N          0.59832       -0.68637        1.59374
C          0.65615       -0.83688       -0.73920
C          2.08518       -0.60299       -0.21849
C          1.99659       -0.98546        1.27247
O          0.29628       -0.85180       -1.87971
H          2.67159       -0.37523        1.88372
H          2.22601       -2.04194        1.45074
O         -1.80578        2.87843       -0.38286
C         -1.58444       -0.23140        0.43555
C         -0.27797       -1.02732        0.48001
N         -0.76997       -2.38051        0.54687
C         -2.05779       -2.42183        0.89091
N         -2.55267       -1.16559        1.02037
H         -1.84672       -0.06507       -0.62291
N         -2.72745       -3.53113        1.08612
H         -0.15361       -3.18136        0.40236
C         -3.95618       -0.84333        0.97684
H         -3.71225       -3.52409        1.32908
C          2.48456        0.87046       -0.41094
O         -4.34209       -0.59625       -0.36043
H         -4.54518       -1.68287        1.35978
H         -4.15727        0.03692        1.59765
C         -4.64245        0.67364       -0.70568
O         -4.85965        1.57121        0.08254
N         -4.73730        0.81931       -2.04854
H         -4.75373        1.77394       -2.40224
O         -4.12964       -0.08745       -2.87746
H         -4.84151       -0.62564       -3.25473
H          3.50340        0.96213       -0.01065
H          2.52959        1.06017       -1.49362
N          0.28378        2.00277       -0.40959
C          1.59186        1.91946        0.25583
C          2.08496        3.37032        0.06979
C          1.46161        3.76588       -1.27144
O          0.48419        2.74943       -1.55940
H          1.46595        1.74059        1.32654
C          3.58767        3.59741        0.14718
H          1.61411        3.96135        0.87082
H          0.96818        4.74720       -1.23511
H          2.18683        3.74998       -2.09754
O          3.90368        4.96349       -0.01116
H          3.97401        3.19889        1.10278
H          4.09969        3.06476       -0.66770
H          3.50277        5.44711        0.72173
O          3.02256       -1.34078       -0.96718
S          2.98695       -3.01577       -0.91250
O          3.87469       -3.37052        0.19743
O          1.56708       -3.33942       -0.66180
O          3.47618       -3.36580       -2.23978
H         -2.25552       -4.42663        1.00158
H          1.64609       -0.52140        3.90796
