59
ZTX_ketone_4_solv.log	Energy: -1435169.1282249
C          1.09893       -1.66316       -0.30558
N          1.15145       -1.52890        1.12969
C          0.52052       -0.55812        1.78694
C         -0.06526       -2.44903       -0.95606
H          1.97436       -2.24996       -0.60167
N          0.41306       -0.58992        3.10108
H          0.72139       -1.40511        3.62271
H          1.68870       -2.20976        1.65973
N         -0.05320        0.43996        1.08234
C         -1.10573        0.95820       -0.93647
C         -2.15757        0.94758        0.18809
C         -1.31826        1.06433        1.47576
O         -1.30851        1.07712       -2.10938
H         -1.77494        0.51359        2.30643
H         -1.16877        2.10408        1.78855
O          0.21591       -3.34552       -1.72454
C          1.18111       -0.29400       -0.98072
C          0.28858        0.75316       -0.30090
N          1.09924        1.94233       -0.41025
C          2.38231        1.63698       -0.62726
N          2.50833        0.31829       -0.90205
H          0.88936       -0.38380       -2.03989
N          3.37570        2.49110       -0.60143
H          0.74357        2.85310       -0.12054
C          3.64536       -0.28967       -1.54099
H          4.33507        2.12758       -0.57762
C         -2.96285       -0.36265        0.14684
O          4.44703       -1.02725       -0.63854
H          3.28425       -1.01818       -2.27549
H          4.24487        0.47005       -2.05751
C          5.39389       -0.35136        0.03959
O          5.62314        0.83630       -0.09419
N          6.01624       -1.17561        0.90724
H          5.94550       -2.18461        0.78856
O          7.17250       -0.72849        1.48098
H          6.94440       -0.48623        2.39135
H         -3.69554       -0.28974        0.96202
H         -3.51532       -0.38350       -0.80426
N         -1.34081       -1.92104       -0.88414
C         -2.16439       -1.65671        0.30747
C         -3.02927       -2.93561        0.33719
C         -3.15370       -3.29589       -1.14622
O         -2.20188       -2.46015       -1.82719
H         -1.54614       -1.64833        1.20902
C         -4.35568       -2.82995        1.06357
H         -2.43203       -3.70798        0.84413
H         -2.92230       -4.35214       -1.34402
H         -4.14160       -3.05198       -1.56205
O         -4.93285       -4.11817        1.07412
H         -4.18560       -2.45537        2.08998
H         -5.01502       -2.10898        0.54874
H         -5.82272       -4.04162        1.43626
O         -3.10777        1.96974        0.00027
S         -2.62429        3.57243        0.08880
O         -2.80852        3.93963        1.49487
O         -1.20951        3.54653       -0.33681
O         -3.54184        4.20979       -0.84759
H          3.19708        3.45639       -0.34137
H          0.08053        0.21951        3.61520
