49
M1_hydrate_8_solv.log	Energy: -762583.2372014
C         -1.20340        1.55422       -1.37135
N         -1.47885        2.22987       -0.11156
C         -1.04143        1.71886        1.04124
C          0.22099        1.73026       -1.89606
H         -1.84520        2.02271       -2.12853
N         -0.95451        2.45989        2.13114
H         -1.07056        3.46645        2.07230
H         -0.77372        2.04196        3.03702
H         -1.78110        3.19897       -0.12792
N         -0.68031        0.42439        1.04780
C         -0.06143       -1.66162        0.05187
C          0.90078       -1.30153        1.24179
C          0.15437       -0.23077        2.05018
O         -0.61879       -2.92808        0.20153
H          0.83022        0.49802        2.51656
H         -0.47056       -0.67583        2.83981
H          0.25649        1.38168       -2.93457
H          0.51669        2.78505       -1.85418
O          1.18553        0.92710       -1.20024
C          1.82988        1.43727       -0.13480
O          1.65228        2.57536        0.23060
C         -1.62235        0.08671       -1.25590
C         -1.21491       -0.54247        0.10609
N         -2.47559       -1.08340        0.57873
C         -3.49092       -0.79849       -0.23982
N         -3.06431       -0.07202       -1.26932
H         -1.17338       -0.48636       -2.07772
N         -4.73676       -1.18196       -0.04951
H         -2.55892       -1.68120        1.39433
H         -3.64203        0.16776       -2.06783
H         -5.45634       -0.93495       -0.72018
H         -4.98663       -1.72809        0.76755
H          0.96006       -2.21565        1.84681
C          2.81709        0.49702        0.50727
C          2.38053       -0.94079        0.97218
C          3.15890       -1.94514        0.07693
C          3.74605       -1.12480       -1.07222
C          4.01596        0.23862       -0.44234
H          3.15374        1.06433        1.38248
H          2.81358       -1.00995        1.97926
H          3.97733       -2.38398        0.66706
H          2.52913       -2.77364       -0.26953
H          4.65503       -1.57472       -1.49684
H          3.01955       -1.02641       -1.89417
H          4.15923        1.04614       -1.17528
H          4.92783        0.19092        0.17209
O          0.52036       -1.71299       -1.20349
H         -0.71045       -3.14429        1.13756
H          0.94666       -0.86155       -1.39459
