44
GTX_55_solv.log	Energy: -1113929.5923298
C          2.37983       -1.45034        0.43076
N          2.86371       -0.65676        1.55150
C          2.05054        0.26992        2.06860
C          1.24121       -2.36884        0.89204
H          3.21325       -2.06970        0.07836
N          2.14255        0.64539        3.33094
H          2.74352        0.13843        3.97327
H          1.65529        1.46955        3.66751
H          3.60770       -1.02587        2.13636
N          1.11825        0.80048        1.25765
C         -0.23786        0.95281       -0.68232
C         -1.08194        0.76134        0.60016
C         -0.18323        1.28016        1.70850
O         -0.36207        2.27636       -1.11245
O         -0.54220        0.05132       -1.68647
O         -2.28315        1.49927        0.53805
H         -1.27875       -0.31227        0.74384
H         -0.43447        0.85249        2.68635
H         -0.22347        2.37850        1.76539
H          1.63571       -3.09009        1.62133
H          0.43458       -1.79658        1.36965
O          0.73426       -3.07450       -0.22557
C         -0.60110       -3.05839       -0.44420
O         -1.40809       -2.60116        0.34723
H         -1.87351       -3.69055       -1.89404
N         -0.90138       -3.61753       -1.62222
H         -0.17582       -3.97552       -2.23057
C          1.96692       -0.52570       -0.71011
C          1.24761        0.75753       -0.20140
N          2.11193        1.81318       -0.68626
C          3.12740        1.33546       -1.41860
N          3.11127        0.00881       -1.42672
H          1.31189       -1.06880       -1.39878
N          4.01236        2.09061       -2.03566
H          1.76862        2.76508       -0.77225
H          3.81185       -0.56792       -1.87998
H          4.75415        1.66975       -2.58435
H          3.96028        3.10062       -1.96256
H         -1.25831        2.56970       -0.88328
H         -1.51940       -0.03962       -1.70672
S         -3.63575        0.65594        0.02912
O         -4.62619        1.72249       -0.03780
O         -3.23439        0.10124       -1.28247
O         -3.85670       -0.36441        1.05441
