44
GTX_25_solv.log	Energy: -1113929.1590847
C          2.43321       -0.16301        0.48138
N          2.50534        0.83327        1.54390
C          1.35985        1.25032        2.09336
C          1.94597       -1.50373        1.04905
H          3.44902       -0.29932        0.09263
N          1.28585        1.63629        3.35252
H          2.07061        1.49073        3.98020
H          0.46593        2.12468        3.69870
H          3.34882        0.87498        2.10966
N          0.26825        1.25614        1.30582
C         -1.03880        0.88562       -0.62225
C         -1.64230        0.16638        0.60362
C         -1.08047        0.95054        1.77872
O         -1.72366        2.08950       -0.81835
O         -0.98120        0.12716       -1.77563
O         -3.05097        0.22424        0.61383
H         -1.28439       -0.87496        0.62931
H         -1.03727        0.35598        2.69930
H         -1.67475        1.85904        1.95537
H          2.62306       -1.82298        1.85299
H          0.92818       -1.41346        1.45209
O          1.86357       -2.49339        0.04044
C          3.01654       -3.09295       -0.33639
O          4.09686       -2.83442        0.16696
H          1.86684       -4.15847       -1.66167
N          2.80106       -3.98196       -1.31368
H          3.58246       -4.51896       -1.66755
C          1.54501        0.33674       -0.65952
C          0.40216        1.26228       -0.14891
N          0.80497        2.56113       -0.65034
C          1.81011        2.45140       -1.53404
N          2.25762        1.20217       -1.58190
H          1.12574       -0.52365       -1.19133
N          2.27976        3.45431       -2.24469
H          0.11938        3.30978       -0.70767
H          3.10130        0.92337       -2.07213
H          3.04435        3.30823       -2.89506
H          1.87641        4.38034       -2.15378
H         -2.65795        1.93358       -0.61024
H         -1.85038       -0.31918       -1.87484
S         -3.86735       -1.03849       -0.11611
O         -5.25209       -0.66012        0.12952
O         -3.45025       -0.95873       -1.53388
O         -3.39569       -2.24486        0.56589
