44
GTX_29_solv.log	Energy: -1113930.5502857
C          2.44339        0.07878        0.23040
N          2.30373        1.48491       -0.08657
C          1.15106        2.06900       -0.40374
C          3.68705       -0.12821        1.08342
H          2.55336       -0.49749       -0.70278
N          1.14083        3.33730       -0.79277
H          2.01536        3.84320       -0.88430
H          0.29143        3.79697       -1.09898
H          3.16069        2.00300       -0.26494
N         -0.00373        1.38689       -0.30188
C         -1.35749        0.20213        1.19463
C         -2.26837        1.07366        0.30218
C         -1.30353        2.08383       -0.29081
O         -1.84552       -1.03388        1.53635
O         -1.06142        0.99456        2.30506
O         -2.82791        0.28661       -0.73611
H         -3.05038        1.56405        0.89782
H         -1.24586        2.97494        0.34938
H         -1.61344        2.37726       -1.30208
H          3.61201        0.45441        2.01061
H          3.79351       -1.19268        1.33122
O          4.84519        0.34770        0.41829
C          5.41240       -0.47275       -0.49896
O          4.99037       -1.59028       -0.74270
H          6.98765       -0.40526       -1.77911
N          6.47216        0.10711       -1.07471
H          6.76325        1.04114       -0.81395
C          1.19314       -0.42477        0.96380
C         -0.08943        0.06248        0.27531
N         -0.29637       -0.99942       -0.70683
C          0.24775       -2.12967       -0.22098
N          1.04978       -1.86199        0.81603
H          1.22192       -0.11988        2.01693
N          0.02083       -3.32861       -0.70633
H         -1.19119       -1.03881       -1.19509
H          1.75216       -2.51830        1.14416
H          0.48560       -4.13948       -0.31103
H         -0.62879       -3.45525       -1.47535
H         -2.82161       -1.05318        1.41310
H         -0.62281        0.44182        2.96642
S         -4.40369       -0.21916       -0.54127
O         -4.53989       -1.14766       -1.65619
O         -4.41298       -0.84781        0.80034
O         -5.21162        0.99824       -0.61026
