44
GTX_35_solv.log	Energy: -1113931.4785291
C          2.45641       -0.12548       -1.01648
N          2.85932       -0.35341        0.36224
C          1.94370       -0.36992        1.33314
C          1.68390       -1.30262       -1.62618
H          3.37824        0.02184       -1.59170
N          2.17964       -0.97395        2.48459
H          2.96800       -1.60688        2.57454
H          1.54987       -0.86623        3.27197
H          3.75938       -0.78803        0.54093
N          0.77851        0.25920        1.10555
C         -0.90909        1.21059       -0.26814
C         -1.41296       -0.03787        0.50417
C         -0.49225       -0.12458        1.70715
O         -1.53018        2.34623        0.25359
O         -1.07643        1.11076       -1.63818
O         -2.75794        0.10763        0.90111
H         -1.28293       -0.93399       -0.12134
H         -0.43700       -1.13878        2.11880
H         -0.80550        0.57824        2.49436
H          0.64757       -1.33611       -1.26985
H          1.67197       -1.18641       -2.71683
O          2.33485       -2.52580       -1.33993
C          1.85736       -3.26255       -0.31022
O          0.84990       -2.97306        0.31510
H          2.34786       -4.99326        0.62935
N          2.63139       -4.32972       -0.08049
H          3.43196       -4.52891       -0.66760
C          1.62203        1.14696       -1.10793
C          0.62704        1.29878        0.08330
N          0.97481        2.60265        0.60941
C          1.97975        3.17142       -0.06756
N          2.42946        2.34906       -1.00765
H          1.06127        1.14461       -2.05029
N          2.45217        4.37587        0.17840
H          0.31835        3.12660        1.18007
H          3.17605        2.57956       -1.65461
H          3.20068        4.75836       -0.38888
H          2.06625        4.93296        0.93278
H         -2.39868        2.07142        0.58873
H         -1.99336        0.79456       -1.78376
S         -3.89980       -0.53657       -0.14259
O         -5.13852       -0.13031        0.50727
O         -3.62368        0.14102       -1.42777
O         -3.62498       -1.97405       -0.16584
