44
GTX_5_solv.log	Energy: -1113932.3897732
C          2.78123        1.35000       -0.12900
N          2.65991        0.92427        1.26174
C          1.82443       -0.05998        1.62145
C          3.68009        0.43086       -0.95042
H          3.27953        2.32742       -0.11554
N          2.06720       -0.79789        2.69151
H          2.96973       -0.73766        3.15180
H          1.38166       -1.44938        3.05582
H          3.49020        1.04282        1.83685
N          0.72683       -0.25638        0.88215
C         -0.62677       -0.17200       -1.01131
C         -1.30052       -1.10615        0.02204
C         -0.19649       -1.38731        1.03504
O         -1.45781        0.63102       -1.75158
O          0.14341       -1.02773       -1.79736
O         -2.36654       -0.43012        0.66701
H         -1.64942       -2.02944       -0.46009
H          0.32591       -2.32845        0.81910
H         -0.62592       -1.43162        2.04565
H          3.90261        0.91566       -1.90956
H          4.62115        0.24530       -0.41624
O          3.02726       -0.78877       -1.25766
C          3.25664       -1.87665       -0.49172
O          4.14360       -1.93805        0.34132
H          2.38855       -3.68070       -0.21385
N          2.39912       -2.86187       -0.81049
H          1.54541       -2.60383       -1.30089
C          1.39304        1.54790       -0.76503
C          0.26464        0.72065       -0.08253
N         -0.54272        1.75097        0.55689
C         -0.19527        2.97017        0.12649
N          0.90413        2.90662       -0.61688
H          1.46330        1.30541       -1.83350
N         -0.85120        4.07453        0.41351
H         -1.49044        1.53405        0.86146
H          1.41550        3.71992       -0.94342
H         -0.53167        4.96835        0.05597
H         -1.68691        4.03878        0.98716
H         -2.35431        0.22874       -1.79060
H          0.67025       -0.51621       -2.42635
S         -3.90925       -0.75898        0.12666
O         -4.67840        0.24774        0.84719
O         -3.82777       -0.55408       -1.33837
O         -4.15827       -2.15154        0.49827
