44
GTX_57_solv.log	Energy: -1113927.8458203
C         -2.45434       -0.06492        0.23059
N         -2.17856       -1.47939        0.07863
C         -0.96378       -1.98421       -0.12130
C         -3.76651        0.11688        0.98079
H         -2.54795        0.39760       -0.76552
N         -0.81948       -3.27859       -0.37104
H         -1.63944       -3.87046       -0.45361
H          0.08414       -3.68248       -0.58630
H         -2.97765       -2.08843       -0.08244
N          0.12145       -1.19295       -0.04006
C          1.25693        0.23973        1.41586
C          2.30175       -0.62840        0.68756
C          1.47310       -1.76641        0.11291
O          1.70033        1.52440        1.67734
O          0.81629       -0.37564        2.57343
O          2.87157        0.19068       -0.31544
H          3.07085       -0.98072        1.39079
H          1.44414       -2.60914        0.81764
H          1.87959       -2.10552       -0.84770
H         -3.69632       -0.32960        1.98100
H         -3.99503        1.18675        1.07593
O         -4.82381       -0.56522        0.32708
C         -5.40289        0.05266       -0.73049
O         -5.07771        1.16396       -1.11202
H         -6.88323       -0.35747       -2.05949
N         -6.35433       -0.71557       -1.27443
H         -6.58323       -1.61957       -0.88023
C         -1.30055        0.61705        0.97619
C          0.05738        0.18072        0.40905
N          0.24525        1.16378       -0.65401
C         -0.42537        2.28104       -0.31941
N         -1.26711        2.04089        0.69172
H         -1.35427        0.41474        2.05211
N         -0.27261        3.44330       -0.91123
H          1.15081        1.22385       -1.11976
H         -2.03982        2.66149        0.91470
H         -0.83398        4.24006       -0.62892
H          0.41110        3.55643       -1.65220
H          2.42504        1.72415        1.06500
H          1.57310       -0.51564        3.16008
S          4.45477       -0.13632       -0.77199
O          5.23600        0.12022        0.44302
O          4.43484       -1.54455       -1.18564
O          4.62488        0.83615       -1.84737
