44
GTX_16_solv.log	Energy: -1113929.2515419
C          2.79013        1.24092        0.15144
N          2.46320        0.63743        1.44053
C          1.53237       -0.32684        1.51751
C          3.70816        0.34107       -0.66897
H          3.36631        2.15160        0.35912
N          1.62151       -1.28815        2.42170
H          2.48166       -1.41420        2.94558
H          0.85647       -1.93384        2.58151
H          3.23821        0.55890        2.09416
N          0.49716       -0.27391        0.67356
C         -0.58543        0.26048       -1.32475
C         -1.41792       -0.80522       -0.58283
C         -0.44719       -1.37470        0.44341
O         -1.35109        1.19380       -2.00026
O          0.32467       -0.32888       -2.18108
O         -2.49003       -0.11081        0.02700
H         -1.78945       -1.56591       -1.28454
H          0.08904       -2.25144        0.05494
H         -0.98674       -1.64955        1.35872
H          3.97257        0.84843       -1.60601
H          4.62468        0.13560       -0.10104
O          3.06577       -0.87374       -1.01719
C          3.39628       -2.00740       -0.36185
O          4.24522       -2.06074        0.51101
H          2.76676       -3.94104       -0.36051
N          2.67343       -3.04182       -0.81566
H          1.92399       -2.88757       -1.48009
C          1.51277        1.66799       -0.59152
C          0.24440        0.88572       -0.15500
N         -0.52782        1.89317        0.55231
C         -0.02187        3.11646        0.35096
N          1.13506        3.04068       -0.29879
H          1.66829        1.54245       -1.66947
N         -0.59358        4.23191        0.75250
H         -1.50410        1.73073        0.79017
H          1.75495        3.83173       -0.43878
H         -0.14714        5.12682        0.58422
H         -1.48332        4.20416        1.23873
H         -2.23291        1.21006       -1.59743
H         -0.15998       -0.80838       -2.86791
S         -3.92756       -0.94925        0.24674
O         -4.35999       -1.28165       -1.11535
O         -3.55485       -2.11478        1.05759
O         -4.72360        0.06599        0.93044
