44
GTX_56_solv.log	Energy: -1113926.8653870
C          2.40800        1.19701       -0.20286
N          2.28486        1.10656        1.24657
C          1.41882        0.22526        1.77095
C          3.07550       -0.03665       -0.79714
H          3.04091        2.06661       -0.41910
N          1.63902       -0.33349        2.94835
H          2.52131       -0.18248        3.42639
H          0.91599       -0.86274        3.42376
H          3.12674        1.29149        1.78474
N          0.32227       -0.07475        1.06706
C         -0.83558       -0.43381       -0.91888
C         -1.55866       -1.21087        0.20574
C         -0.54235       -1.22905        1.34184
O         -1.62275        0.13876       -1.88369
O          0.08765       -1.34450       -1.43939
O         -2.71337       -0.50014        0.62110
H         -1.81429       -2.22724       -0.12312
H          0.05500       -2.15073        1.33521
H         -1.05878       -1.13461        2.30702
H          2.45710       -0.93229       -0.62555
H          3.19978        0.10833       -1.88221
O          4.33507       -0.17290       -0.16220
C          5.11745       -1.25021       -0.37438
O          6.16070       -1.33397        0.25091
H          5.28855       -2.95960       -1.43739
N          4.68858       -2.16294       -1.26155
H          3.85679       -2.05748       -1.82838
C          1.03820        1.43978       -0.83328
C         -0.10439        0.68002       -0.10154
N         -1.01673        1.74900        0.26067
C         -0.58764        2.93800       -0.17074
N          0.61385        2.82360       -0.73023
H          1.07726        1.14875       -1.89308
N         -1.25936        4.06327       -0.04381
H         -1.97748        1.55585        0.53396
H          1.12177        3.59618       -1.14753
H         -0.88099        4.92888       -0.41335
H         -2.16992        4.06825        0.40289
H         -2.49728       -0.31106       -1.90703
H          0.51958       -0.95126       -2.20980
S         -4.17845       -1.02355        0.02375
O         -5.06720        0.03173        0.49317
O         -3.97442       -1.06198       -1.44341
O         -4.38199       -2.34870        0.60913
