44
GTX_33_solv.log	Energy: -1113929.5949151
C         -2.37992        1.45014        0.43085
N         -2.86380        0.65629        1.55142
C         -2.05046       -0.27027        2.06853
C         -1.24130        2.36852        0.89229
H         -3.21335        2.06954        0.07853
N         -2.14258       -0.64580        3.33085
H         -2.74318       -0.13856        3.97333
H         -1.65467       -1.46948        3.66764
H         -3.60780        1.02529        2.13633
N         -1.11799       -0.80048        1.25758
C          0.23793       -0.95280       -0.68253
C          1.08210       -0.76155        0.59992
C          0.18347       -1.28034        1.70833
O          0.36195       -2.27628       -1.11293
O          0.54236       -0.05116       -1.68653
O          2.28334       -1.49945        0.53773
H          1.27890        0.31205        0.74367
H          0.43485       -0.85269        2.68615
H          0.22357       -2.37870        1.76520
H         -1.63559        3.08948        1.62200
H         -0.43457        1.79605        1.36947
O         -0.73459        3.07460       -0.22517
C          0.60074        3.05864       -0.44397
O          1.40782        2.60101        0.34713
H          1.87293        3.69143       -1.89373
N          0.90086        3.61840       -1.62173
H          0.17517        3.97630       -2.22998
C         -1.96686        0.52568       -0.71013
C         -1.24750       -0.75753       -0.20147
N         -2.11201       -1.81317       -0.68608
C         -3.12740       -1.33543       -1.41853
N         -3.11105       -0.00880       -1.42698
H         -1.31184        1.06893       -1.39868
N         -4.01257       -2.09058       -2.03527
H         -1.76852       -2.76496       -0.77253
H         -3.81216        0.56795       -1.87940
H         -4.75390       -1.66966       -2.58455
H         -3.96011       -3.10062       -1.96287
H          1.25847       -2.56957       -0.88483
H          1.51955        0.03990       -1.70660
S          3.63585       -0.65583        0.02912
O          4.62645       -1.72224       -0.03812
O          3.23451       -0.10077       -1.28231
O          3.85664        0.36420        1.05477
