44
GTX_17_solv.log	Energy: -1113932.6449688
C          2.37409        0.74730        0.88417
N          2.46184       -0.66671        1.18172
C          1.41652       -1.48739        1.18591
C          3.73405        1.29007        0.47347
H          2.08453        1.29963        1.79422
N          1.58931       -2.76290        1.50970
H          2.50746       -3.08593        1.79583
H          0.81493       -3.41230        1.57476
H          3.39881       -1.06543        1.28624
N          0.19193       -1.02964        0.85742
C         -0.93147       -0.17136       -1.00896
C         -1.86233       -1.18903       -0.31405
C         -0.90934       -1.97015        0.57225
O         -1.53700        0.93070       -1.55827
O         -0.20563       -0.91424       -1.94228
O         -2.81758       -0.51384        0.48741
H         -2.35162       -1.84156       -1.05003
H         -0.52780       -2.84102        0.02247
H         -1.40471       -2.30409        1.49261
H          3.65020        2.36903        0.29525
H          4.46082        1.12760        1.28092
O          4.20918        0.72550       -0.74129
C          4.96094       -0.39309       -0.66837
O          5.16247       -0.99705        0.37792
H          6.00245       -1.57922       -1.94278
N          5.43568       -0.74393       -1.86580
H          5.25266       -0.17833       -2.68566
C          1.29329        0.97980       -0.18157
C         -0.00210        0.24342        0.18833
N         -0.66815        1.25231        1.00977
C         -0.25190        2.46489        0.60097
N          0.83502        2.35623       -0.16948
H          1.66531        0.67644       -1.16713
N         -0.83520        3.59768        0.92212
H         -1.64909        1.11086        1.25097
H          1.44478        3.14351       -0.36921
H         -0.45016        4.48070        0.60323
H         -1.67907        3.59828        1.48542
H         -2.49758        0.75750       -1.68147
H          0.28257       -0.30104       -2.50892
S         -4.35270       -0.34922       -0.14024
O         -4.96302        0.53843        0.84132
O         -4.12879        0.25400       -1.47512
O         -4.89023       -1.70788       -0.20765
