44
GTX_26_solv.log	Energy: -1113927.4590046
C         -2.34903        1.47193        0.45804
N         -2.83515        0.67344        1.57360
C         -2.04645       -0.28771        2.06395
C         -1.18998        2.36448        0.91675
H         -3.17542        2.10979        0.12253
N         -2.15094       -0.69694        3.31507
H         -2.73935       -0.19281        3.97114
H         -1.68360       -1.54111        3.62930
H         -3.57327        1.04228        2.16588
N         -1.12690       -0.82047        1.23992
C          0.24902       -0.93850       -0.70316
C          1.07600       -0.81208        0.59715
C          0.15780       -1.35431        1.67760
O          0.42868       -2.23950       -1.17513
O          0.56043        0.00367       -1.66198
O          2.28746       -1.52870        0.56647
H          1.25655        0.25983        0.77765
H          0.41453       -0.97529        2.67385
H          0.16792       -2.45500        1.68788
H         -1.56324        3.08247        1.66047
H         -0.38792        1.77265        1.37742
O         -0.68656        3.07485       -0.19936
C          0.64842        3.06223       -0.41940
O          1.45686        2.60370        0.36940
H          1.91787        3.70305       -1.86834
N          0.94630        3.62792       -1.59522
H          0.21932        3.98519       -2.20225
C         -1.96675        0.55423       -0.69940
C         -1.24837       -0.73873       -0.21638
N         -2.11372       -1.77916       -0.73024
C         -3.15860       -1.28826       -1.40677
N         -3.13305        0.03873       -1.39550
H         -1.32093        1.09811       -1.39634
N         -4.07259       -2.02995       -1.99775
H         -1.84616       -2.75827       -0.73320
H         -3.83219        0.62700       -1.83567
H         -4.83980       -1.59679       -2.49998
H         -4.02240       -3.04118       -1.94346
H          0.05799       -2.28627       -2.06771
H          1.54265        0.05512       -1.69393
S          3.61856       -0.69231        0.03779
O          4.62637       -1.74539       -0.00321
O          3.22460       -0.16912       -1.29130
O          3.83722        0.36218        1.03142
