44
GTX_50_solv.log	Energy: -1113929.8162942
C         -2.36044        0.83492        0.63200
N         -1.92085        2.21271        0.65763
C         -0.64421        2.59054        0.61426
C         -3.78612        0.79644        0.10351
H         -2.34909        0.42182        1.65457
N         -0.33602        3.87437        0.74106
H         -1.06918        4.55807        0.89730
H          0.62577        4.19034        0.77708
H         -2.60865        2.92244        0.89802
N          0.32854        1.68289        0.41832
C          1.08006        0.07264       -1.10293
C          2.30595        0.85226       -0.57873
C          1.68580        2.10144        0.01959
O          1.26419       -1.26779       -1.32995
O          0.66339        0.76442       -2.24177
O          2.95813        0.11014        0.43858
H          2.99598        1.09798       -1.39740
H          1.62568        2.89326       -0.73964
H          2.26737        2.45852        0.87918
H         -4.43930        1.42944        0.72450
H         -3.81924        1.16219       -0.93365
O         -4.20484       -0.55552        0.16864
C         -5.37608       -0.86197       -0.42977
O         -6.07633       -0.02717       -0.97473
H         -6.48987       -2.53218       -0.74713
N         -5.63939       -2.17159       -0.33350
H         -4.99636       -2.80103        0.13077
C         -1.41069       -0.00376       -0.23854
C          0.06018        0.30224        0.07208
N          0.31926       -0.64434        1.15401
C         -0.51562       -1.68861        1.00805
N         -1.48213       -1.40722        0.12595
H         -1.63516        0.15724       -1.30012
N         -0.39960       -2.82837        1.65107
H          1.28422       -0.79771        1.44618
H         -2.37636       -1.89171        0.13483
H         -1.08397       -3.56501        1.51522
H          0.37461       -2.98249        2.28829
H          2.22485       -1.46447       -1.40929
H          0.00196        0.22782       -2.69943
S          4.34333       -0.71027        0.00627
O          4.60193       -1.48115        1.21572
O          3.93033       -1.51204       -1.16937
O          5.31966        0.32835       -0.32194
