44
GTX_24_solv.log	Energy: -1113929.0958129
C          2.27803        0.16297       -0.45265
N          2.53275        0.43066        0.96157
C          1.52755        0.22180        1.81968
C          2.01714       -1.32317       -0.71545
H          3.17825        0.46146       -1.00160
N          1.73304       -0.18542        3.05745
H          2.65862       -0.48363        3.34973
H          0.98946       -0.15402        3.74750
H          3.47889        0.28498        1.30350
N          0.28225        0.44095        1.36212
C         -1.42962        0.94252       -0.18261
C         -1.68523       -0.41272        0.51404
C         -0.89668       -0.29594        1.80774
O         -2.21252        1.92176        0.43712
O         -1.59920        0.93161       -1.55394
O         -3.05161       -0.61631        0.79582
H         -1.28131       -1.22582       -0.10925
H         -0.60581       -1.27258        2.21264
H         -1.47267        0.25887        2.56312
H          1.06256       -1.64132       -0.27456
H          1.97683       -1.49516       -1.79994
O          3.00389       -2.13776       -0.10790
C          4.20565       -2.21883       -0.72233
O          4.45542       -1.65718       -1.77600
H          5.98106       -3.14967       -0.39814
N          5.05657       -2.98034       -0.02281
H          4.76133       -3.44977        0.82424
C          1.10309        1.00661       -0.95015
C          0.05867        1.26509        0.17744
N          0.24753        2.67508        0.45523
C          1.01211        3.25880       -0.48070
N          1.50122        2.35267       -1.32048
H          0.62295        0.50448       -1.79741
N          1.23966        4.55277       -0.54452
H         -0.47301        3.18903        0.95553
H          2.23836        2.54900       -1.99028
H          1.82803        4.93452       -1.27723
H          0.82771        5.17955        0.13806
H         -3.06189        1.51590        0.67026
H         -2.43766        0.45542       -1.74003
S         -3.94729       -1.42574       -0.36069
O         -5.25405       -1.48108        0.27978
O         -3.87902       -0.54100       -1.54503
O         -3.26419       -2.70713       -0.54675
