44
GTX_30_solv.log	Energy: -1113927.1129583
C          2.40285       -0.22101        0.49580
N          2.50656        0.77574        1.55541
C          1.37368        1.23069        2.10296
C          1.87821       -1.54466        1.06959
H          3.41360       -0.38890        0.10629
N          1.30938        1.60404        3.36653
H          2.08679        1.42249        3.99398
H          0.50885        2.12091        3.71636
H          3.34424        0.77633        2.13147
N          0.28713        1.28860        1.31058
C         -1.03931        0.95786       -0.62312
C         -1.64235        0.24643        0.60461
C         -1.07526        1.03094        1.77600
O         -1.74906        2.15138       -0.79411
O         -1.00172        0.21738       -1.78331
O         -3.04880        0.25470        0.64487
H         -1.25268       -0.78475        0.62844
H         -1.05769        0.44688        2.70377
H         -1.64424        1.95866        1.93489
H          2.55714       -1.88862        1.86184
H          0.87135       -1.42058        1.49126
O          1.74467       -2.52913        0.06133
C          2.87069       -3.15988       -0.34472
O          3.96848       -2.94079        0.13929
H          3.36461       -4.59045       -1.69932
N          2.60831       -4.03024       -1.32740
H          1.66183       -4.17583       -1.65605
C          1.53005        0.30179       -0.64678
C          0.42684        1.27683       -0.14295
N          0.88911        2.55298       -0.64854
C          1.89242        2.40009       -1.52597
N          2.27466        1.12901       -1.57985
H          1.07561       -0.54631       -1.16925
N          2.41720        3.38211       -2.22737
H          0.27194        3.36037       -0.66028
H          3.10937        0.81259       -2.06269
H          3.18291        3.20228       -2.86792
H          2.05993        4.32671       -2.13439
H         -1.60761        2.44757       -1.70437
H         -1.87869       -0.22128       -1.87503
S         -3.82981       -0.99919       -0.11144
O         -5.22478       -0.67770        0.16107
O         -3.44084       -0.87050       -1.53548
O         -3.31587       -2.21799        0.51959
