44
GTX_45_solv.log	Energy: -1113928.2306028
C         -2.50608        0.00637       -0.86057
N         -1.83543       -0.37878       -2.09434
C         -0.65199       -1.00758       -2.02471
C         -3.02230       -1.24149       -0.13250
H         -3.36632        0.62786       -1.13666
N         -0.27640       -1.86535       -2.95716
H         -0.92846       -2.14449       -3.68311
H          0.67656       -2.20843       -3.00580
H         -2.42111       -0.58717       -2.89831
N          0.13704       -0.73697       -0.97876
C          0.58091       -0.08056        1.20508
C          1.81616       -0.82607        0.66922
C          1.26981       -1.56846       -0.54833
O          0.94401        0.93477        2.06353
O         -0.31788       -0.97755        1.77076
O          2.77547        0.14143        0.29235
H          2.21919       -1.50676        1.43341
H          0.91509       -2.57560       -0.28974
H          2.04682       -1.63974       -1.32001
H         -3.67036       -1.80982       -0.81342
H         -2.18714       -1.87674        0.18883
O         -3.71807       -0.90006        1.05258
C         -4.99848       -0.48330        0.92419
O         -5.57154       -0.40892       -0.14992
H         -6.49385        0.12218        2.15781
N         -5.52592       -0.17027        2.11444
H         -4.99856       -0.29940        2.96896
C         -1.57396        0.84716        0.01109
C         -0.08813        0.41056       -0.11281
N          0.55774        1.60392       -0.62140
C         -0.29404        2.63201       -0.70266
N         -1.52585        2.24132       -0.39298
H         -1.90404        0.76813        1.05512
N          0.05136        3.85397       -1.05051
H          1.57021        1.70435       -0.59844
H         -2.34154        2.84292       -0.43323
H         -0.64323        4.59138       -1.09513
H          1.01646        4.06586       -1.27912
H          0.13868        1.36022        2.39235
H          0.10465       -1.39618        2.53411
S          4.38173       -0.30664        0.36451
O          4.62059       -0.59509        1.78328
O          4.48354       -1.48663       -0.50628
O          5.02014        0.90469       -0.14541
