44
GTX_51_solv.log	Energy: -1113930.1071636
C         -2.36612       -0.62801       -1.15835
N         -1.97947       -2.00329       -0.90764
C         -0.71054       -2.35270       -0.69401
C         -3.87763       -0.46513       -1.14442
H         -2.04058       -0.33621       -2.17178
N         -0.37431       -3.63487       -0.67605
H         -1.07425       -4.34314       -0.87164
H          0.58705       -3.93394       -0.56437
H         -2.63107       -2.73996       -1.16603
N          0.22373       -1.40455       -0.47843
C          0.66155        0.23999        1.12476
C          1.98413       -0.49657        0.83386
C          1.52873       -1.76031        0.11832
O          0.82920        1.58293        1.41443
O         -0.05071       -0.39412        2.12690
O          2.75205        0.35634        0.00654
H          2.51888       -0.71536        1.77005
H          1.39760       -2.57101        0.84725
H          2.25196       -2.06792       -0.64597
H         -4.13733        0.50794       -1.57944
H         -4.33301       -1.25134       -1.76141
O         -4.44022       -0.59101        0.15134
C         -4.67421        0.54673        0.84262
O         -4.40157        1.65942        0.41538
H         -5.44353       -0.66044        2.31038
N         -5.22653        0.28869        2.03182
H         -5.45489        1.06211        2.64359
C         -1.63355        0.25598       -0.14215
C         -0.12798       -0.02408       -0.19983
N          0.29033        0.92592       -1.22737
C         -0.57239        1.96342       -1.21356
N         -1.67160        1.64947       -0.52891
H         -2.01573        0.09382        0.87242
N         -0.35139        3.11776       -1.80096
H          1.28642        1.08944       -1.37456
H         -2.54401        2.17510       -0.52188
H         -1.05656        3.84665       -1.77731
H          0.52805        3.29376       -2.27460
H          1.67317        1.87242        1.03601
H          0.48484       -0.40030        2.93296
S          4.42410        0.21227        0.09788
O          4.82873        1.17507       -0.92256
O          4.73985        0.58654        1.48080
O          4.68895       -1.19612       -0.21788
