44
GTX_37_solv.log	Energy: -1113929.1579489
C          2.43311       -0.16309        0.48092
N          2.50549        0.83295        1.54366
C          1.36013        1.25000        2.09335
C          1.94568       -1.50381        1.04845
H          3.44887       -0.29950        0.09206
N          1.28627        1.63568        3.35261
H          2.07120        1.49017        3.98009
H          0.46657        2.12438        3.69888
H          3.34908        0.87452        2.10926
N          0.26841        1.25612        1.30599
C         -1.03894        0.88605       -0.62198
C         -1.64208        0.16625        0.60373
C         -1.08020        0.95013        1.77898
O         -1.72385        2.09000       -0.81746
O         -0.98153        0.12809       -1.77571
O         -3.05075        0.22386        0.61428
H         -1.28396       -0.87504        0.62898
H         -1.03675        0.35530        2.69939
H         -1.67461        1.85847        1.95597
H          2.62265       -1.82317        1.85245
H          0.92784       -1.41339        1.45135
O          1.86330       -2.49343        0.03980
C          3.01621       -3.09333       -0.33663
O          4.09645       -2.83500        0.16701
H          3.58215       -4.51981       -1.66727
N          2.80081       -3.98240       -1.31388
H          1.86662       -4.15887       -1.66197
C          1.54484        0.33702       -0.65976
C          0.40210        1.26252       -0.14874
N          0.80494        2.56146       -0.64996
C          1.80994        2.45187       -1.53383
N          2.25743        1.20267       -1.58197
H          1.12543       -0.52319       -1.19177
N          2.27940        3.45492       -2.24441
H          0.11927        3.31006       -0.70723
H          3.10096        0.92390       -2.07247
H          3.04396        3.30902       -2.89485
H          1.87627        4.38100       -2.15303
H         -2.65809        1.93410       -0.60904
H         -1.85071       -0.31826       -1.87496
S         -3.86705       -1.03860       -0.11616
O         -5.25180       -0.66070        0.13006
O         -3.45037       -0.95797       -1.53402
O         -3.39494       -2.24528        0.56498
