44
GTX_28_solv.log	Energy: -1113929.0929577
C          2.27773        0.16281       -0.45303
N          2.53269        0.43009        0.96125
C          1.52753        0.22148        1.81947
C          2.01656       -1.32323       -0.71621
H          3.17795        0.46135       -1.00194
N          1.73307       -0.18590        3.05719
H          2.65857       -0.48446        3.34937
H          0.98952       -0.15448        3.74727
H          3.47883        0.28416        1.30305
N          0.28226        0.44115        1.36211
C         -1.42964        0.94364       -0.18225
C         -1.68537       -0.41186        0.51383
C         -0.89684       -0.29555        1.80760
O         -2.21196        1.92283        0.43826
O         -1.59979        0.93342       -1.55351
O         -3.05181       -0.61544        0.79530
H         -1.28137       -1.22476       -0.10967
H         -0.60621       -1.27233        2.21233
H         -1.47275        0.25928        2.56302
H          1.06170       -1.64118       -0.27583
H          1.97666       -1.49502       -1.80074
O          3.00279       -2.13822       -0.10835
C          4.20488       -2.21948       -0.72209
O          4.45547       -1.65760       -1.77544
H          5.97979       -3.15100       -0.39711
N          5.05512       -2.98149       -0.02230
H          4.75925       -3.45098        0.82450
C          1.10287        1.00680       -0.95020
C          0.05882        1.26559        0.17765
N          0.24845        2.67543        0.45568
C          1.01267        3.25896       -0.48072
N          1.50114        2.35274       -1.32074
H          0.62232        0.50472       -1.79728
N          1.24051        4.55287       -0.54465
H         -0.47180        3.18965        0.95613
H          2.23798        2.54882       -1.99094
H          1.82873        4.93443       -1.27759
H          0.82895        5.17980        0.13803
H         -3.06226        1.51767        0.66925
H         -2.43725        0.45560       -1.73985
S         -3.94687       -1.42618       -0.36072
O         -3.87690       -0.54341       -1.54641
O         -3.26438       -2.70829       -0.54409
O         -5.25425       -1.47974        0.27867
