44
GTX_8_solv.log	Energy: -1113929.7578981
C          2.50597        0.54111        0.05704
N          2.17139       -0.09413        1.32840
C          1.10878       -0.91355        1.37469
C          3.02108       -0.47463       -0.96564
H          3.30497        1.26318        0.26103
N          1.07796       -1.95442        2.18795
H          1.90386       -2.20596        2.72158
H          0.22074       -2.47153        2.35077
H          2.95618       -0.34089        1.92568
N          0.07810       -0.64178        0.56691
C         -0.92109        0.20725       -1.35689
C         -1.88891       -0.81124       -0.71874
C         -1.01334       -1.57747        0.26668
O         -1.55460        1.27789       -1.95973
O         -0.06144       -0.41038       -2.24735
O         -2.88629       -0.04829       -0.06559
H         -2.33292       -1.46145       -1.48653
H         -0.60603       -2.49394       -0.18202
H         -1.59285       -1.83519        1.16266
H          2.22975       -1.17691       -1.25643
H          3.36892        0.05640       -1.86246
O          4.05637       -1.27169       -0.41645
C          5.28888       -0.72184       -0.33913
O          5.54665        0.39927       -0.74513
H          7.12955       -1.28603        0.30787
N          6.15859       -1.56250        0.23620
H          5.88067       -2.49984        0.49948
C          1.30175        1.30797       -0.48835
C         -0.04697        0.62430       -0.13397
N         -0.71297        1.62652        0.67514
C         -0.01353        2.76575        0.72741
N          1.15431        2.62243        0.11028
H          1.39684        1.39820       -1.57835
N         -0.42985        3.86585        1.31885
H         -1.69921        1.55277        0.91340
H          1.86628        3.34325        0.06339
H          0.15010        4.69794        1.32308
H         -1.33794        3.89124        1.76984
H         -2.43008        1.37710       -1.55527
H         -0.57863       -0.78017       -2.97718
S         -4.39932       -0.75247        0.11659
O         -4.86239       -0.96851       -1.25857
O         -4.14297       -1.98958        0.86436
O         -5.09278        0.29772        0.85712
