44
GTX_21_solv.log	Energy: -1113928.6073407
C          2.31480        0.31991       -1.01237
N          2.81084        0.26922        0.36094
C          1.95742       -0.03846        1.34275
C          1.92314       -1.06022       -1.54551
H          3.13456        0.71080       -1.62667
N          2.35549       -0.62118        2.45669
H          3.27125       -1.05763        2.50224
H          1.72376       -0.72702        3.24329
H          3.79488        0.05836        0.50494
N          0.66587        0.29184        1.15683
C         -1.25698        1.11685        0.05133
C         -1.43986       -0.35518        0.47799
C         -0.45899       -0.51397        1.62826
O         -1.93028        1.89902        0.99511
O         -1.64892        1.41731       -1.23418
O         -2.74310       -0.67455        0.90213
H         -1.13190       -0.99754       -0.36323
H         -0.14520       -1.55468        1.77090
H         -0.89113       -0.12388        2.56162
H          1.01690       -1.44037       -1.05480
H          1.73259       -0.98170       -2.62341
O          2.99111       -1.97221       -1.36916
C          2.90541       -2.86116       -0.35277
O          1.92141       -2.98051        0.35859
H          4.07720       -4.31536        0.44514
N          4.03230       -3.57534       -0.24378
H          4.79443       -3.44717       -0.89795
C          1.12465        1.27684       -1.11987
C          0.29832        1.32964        0.20074
N          0.60931        2.65386        0.70130
C          1.24764        3.39226       -0.21778
N          1.53004        2.66010       -1.29043
H          0.48111        0.96510       -1.95037
N          1.55162        4.66348       -0.06646
H          0.06932        3.06625        1.45722
H          2.14766        2.97168       -2.03309
H          2.03259        5.16657       -0.80441
H          1.28704        5.15681        0.77929
H         -2.07140        2.77373        0.60640
H         -2.52804        0.99538       -1.37260
S         -3.81432       -1.16609       -0.26563
O         -5.01164       -1.41660        0.52707
O         -3.92136       -0.00554       -1.18084
O         -3.20074       -2.34127       -0.89079
