44
GTX_38_solv.log	Energy: -1113929.1343294
C          2.56028        1.19575       -0.10675
N          2.36533        0.55602        1.18865
C          1.41991       -0.38406        1.32235
C          3.14150        0.23614       -1.14825
H          3.27098        2.01605        0.05042
N          1.51689       -1.33181        2.23742
H          2.39877       -1.48848        2.71448
H          0.74359       -1.96024        2.42305
H          3.16562        0.50613        1.81261
N          0.36053       -0.31247        0.50641
C         -0.81064        0.33438       -1.40028
C         -1.57926       -0.81361       -0.72013
C         -0.53252       -1.43717        0.19793
O         -1.68016        1.24045       -1.96825
O          0.11906       -0.16877       -2.30342
O         -2.63499       -0.24162        0.02630
H         -1.96103       -1.52163       -1.47016
H          0.03600       -2.23221       -0.30399
H         -1.01944       -1.84118        1.09397
H          2.40477       -0.51983       -1.44663
H          3.43979        0.80909       -2.03542
O          4.30486       -0.38783       -0.63527
C          4.19473       -1.66278       -0.19589
O          3.17709       -2.32779       -0.30166
H          5.40318       -3.03739        0.68335
N          5.33853       -2.08042        0.36030
H          6.15568       -1.48297        0.38200
C          1.24182        1.78858       -0.60264
C          0.02013        0.90754       -0.21160
N         -0.77417        1.80583        0.60224
C         -0.23689        3.02828        0.66589
N          0.92494        3.06053        0.02078
H          1.28689        1.90393       -1.69423
N         -0.78614        4.04873        1.29049
H         -1.73905        1.59034        0.84198
H          1.53814        3.86800       -0.00714
H         -0.33219        4.95573        1.29143
H         -1.67619        3.93818        1.76373
H         -1.16417        1.93839       -2.39729
H         -0.35072       -0.64247       -3.00468
S         -4.00720       -1.16713        0.23583
O         -4.52088       -1.37833       -1.12318
O         -3.53665       -2.39668        0.88921
O         -4.80598       -0.27799        1.07645
