42
M3_solv.log	Energy: -666037.7680554
C         -1.24796        1.60111       -1.09134
N         -1.41478        2.06819        0.27746
C         -0.75956        1.48599        1.28135
C          0.07356        2.01592       -1.74242
H         -2.04371        2.07494       -1.67836
N         -0.54749        2.11504        2.42271
H         -0.76645        3.10265        2.50885
H         -0.20881        1.61812        3.23934
H         -1.79996        2.99552        0.42892
N         -0.30887        0.23268        1.09504
C          0.46088       -1.48297       -0.26967
C          1.44916       -1.35121        0.87211
C          0.78314       -0.37832        1.85872
O          0.57283       -2.13629       -1.27092
H          1.47243        0.40635        2.19495
H          0.39162       -0.90365        2.74147
H         -0.07363        2.07569       -2.82726
H          0.40288        2.99217       -1.36525
O          1.09263        1.03317       -1.55960
C          2.06663        1.19198       -0.65146
O          2.12547        2.13424        0.10341
C         -1.46359        0.08642       -1.14549
C         -0.80539       -0.64288        0.05559
N         -1.87306       -1.51592        0.50981
C         -3.03793       -1.22454       -0.08709
N         -2.86202       -0.27663       -1.00246
H         -1.05759       -0.31804       -2.08392
N         -4.18363       -1.80523        0.19412
H         -1.79269       -2.11093        1.32966
H         -3.57822        0.00808       -1.66294
H         -5.02486       -1.54876       -0.31167
H         -4.23770       -2.51189        0.91979
H          1.49260       -2.35135        1.33095
C          3.02108        0.03059       -0.70505
C          2.90018       -0.98200        0.45502
H          4.04016        0.44216       -0.69274
H          3.35116       -0.52618        1.34913
H          2.87309       -0.48680       -1.66190
C          3.70068       -2.23126        0.09725
H          4.72867       -1.96304       -0.18771
H          3.74902       -2.92163        0.95198
H          3.23827       -2.76229       -0.74853
