42
M3_1_solv.log	Energy: -666040.0893259
C         -0.96806        1.77091        0.93571
N         -1.03448        0.85002        2.06013
C         -0.63439       -0.42170        1.98384
C          0.41219        2.38130        0.74535
H         -1.65506        2.59958        1.14836
N         -0.33278       -1.08751        3.08773
H         -0.31066       -0.60639        3.98114
H         -0.23836       -2.09675        3.08203
H         -1.14582        1.24751        2.98821
N         -0.56939       -1.03201        0.78566
C          0.32386       -0.56421       -1.31755
C          1.22864       -1.57282       -0.64644
C          0.33590       -2.14871        0.46141
O          0.49546        0.00744       -2.36092
H          0.90930       -2.45994        1.34104
H         -0.25607       -3.00688        0.11494
H          0.38589        3.12825       -0.05896
H          0.75330        2.86152        1.67267
O          1.30675        1.32485        0.41230
C          2.30611        1.52924       -0.45595
O          2.54931        2.61015       -0.93603
C         -1.45090        1.07136       -0.32735
C         -0.95342       -0.38047       -0.45536
N         -2.09575       -1.02267       -1.07835
C         -3.20475       -0.28284       -0.91061
N         -2.89395        0.89846       -0.37643
H         -1.10702        1.63110       -1.21124
N         -4.41458       -0.67784       -1.23548
H         -2.12689       -2.02046       -1.27188
H         -3.53322        1.68792       -0.37922
H         -5.20717       -0.05539       -1.11671
H         -4.56629       -1.60738       -1.61282
H          1.46997       -2.32442       -1.41263
C          3.07578        0.26603       -0.74256
C          2.56173       -1.00409       -0.06608
H          4.10646        0.46415       -0.40702
H          2.36449       -0.74837        0.98554
H          3.13034        0.16219       -1.83760
C          3.62143       -2.10152       -0.09319
H          4.52901       -1.78043        0.43889
H          3.24834       -3.01649        0.39123
H          3.89918       -2.35277       -1.12893
