42
M3_2_solv.log	Energy: -666038.9550273
C          0.76703       -1.72341       -1.08597
N          0.77378       -2.20868        0.28561
C          0.43826       -1.42734        1.31563
C         -0.64123       -1.64572       -1.66069
H          1.33525       -2.43505       -1.69751
N          0.05116       -1.96465        2.46219
H         -0.10286       -2.96552        2.52905
H          0.00947       -1.41194        3.31159
H          0.78745       -3.21227        0.44140
N          0.51382       -0.08958        1.18977
C         -0.06994        1.56995       -0.35195
C         -0.99388        1.72781        0.83694
C         -0.34433        0.85605        1.92482
O         -0.09175        2.15891       -1.39891
H         -1.07711        0.31502        2.53272
H          0.27359        1.46017        2.60255
H         -0.61001       -1.32947       -2.71216
H         -1.14474       -2.61770       -1.58829
O         -1.34142       -0.67162       -0.89275
C         -2.60336       -0.88502       -0.50561
O         -3.28291       -1.77580       -0.95590
C          1.46700       -0.37355       -1.14120
C          1.05143        0.56142        0.00940
N          2.29951        1.25224        0.28441
C          3.34040        0.56146       -0.21039
N          2.90730       -0.45508       -0.95724
H          1.23409        0.12663       -2.09388
N          4.60085        0.85774        0.01257
H          2.39748        1.91578        1.04858
H          3.50942       -0.94748       -1.61073
H          5.34001        0.31275       -0.41934
H          4.84674        1.63831        0.61241
H         -0.90191        2.79033        1.11181
C         -3.01602        0.04352        0.60088
C         -2.51319        1.49438        0.59305
H         -2.70723       -0.47574        1.52416
H         -2.98575        1.94304        1.48024
H         -4.11419        0.05115        0.61587
C         -3.02864        2.25160       -0.62920
H         -2.67837        1.80059       -1.56964
H         -4.12847        2.23762       -0.63811
H         -2.70028        3.30106       -0.61569
