42
M3_3_solv.log	Energy: -666038.1777125
C         -1.07299        1.62857       -1.12488
N         -1.34977        2.13602        0.21202
C         -0.83260        1.53344        1.28748
C          0.33673        1.97832       -1.59481
H         -1.76685        2.11973       -1.81859
N         -0.64102        2.20022        2.41239
H         -0.77984        3.20527        2.44050
H         -0.45231        1.71341        3.28203
H         -1.63156        3.10744        0.30807
N         -0.51182        0.22834        1.21944
C          0.39074       -1.45916       -0.11580
C          1.28135       -1.35325        1.10142
C          0.53641       -0.39408        2.04554
O          0.56972       -2.09588       -1.11881
H          1.19314        0.38631        2.44938
H          0.08541       -0.93285        2.88952
H          0.55734        1.48695       -2.55125
H          0.42893        3.06573       -1.71624
O          1.26168        1.57298       -0.59162
C          2.34507        0.84064       -0.88687
O          2.66054        0.54653       -2.01564
C         -1.37275        0.13297       -1.16015
C         -0.88827       -0.61328        0.10555
N         -2.01867       -1.47648        0.40223
C         -3.10587       -1.11124       -0.29460
N         -2.79847       -0.14516       -1.15624
H         -0.89838       -0.31982       -2.04314
N         -4.29855       -1.64321       -0.14279
H         -2.05891       -2.06429        1.23037
H         -3.42045        0.16607       -1.89567
H         -5.07479       -1.33258       -0.71753
H         -4.45356       -2.36687        0.55119
H          1.27511       -2.36816        1.53171
C          3.05846        0.42845        0.37230
C          2.77384       -1.01929        0.83254
H          2.79539        1.14030        1.16493
H          3.24890       -1.09353        1.82285
H          4.13779        0.51269        0.18403
C          3.44091       -2.05226       -0.07339
H          3.09344       -1.97920       -1.11258
H          4.53003       -1.89951       -0.06896
H          3.23749       -3.07314        0.28263
